<?xml version="1.0"?>
<VTKFile type="StructuredGrid">
<StructuredGrid WholeExtent="     0    19     0    19     0     0">
<Piece Extent="     0    19     0    19     0     0">
<Points>
<DataArray type="Float32" NumberOfComponents="3"/>
      -0.002500       -0.002500        0.000000       -0.002237       -0.002500        0.000000       -0.001974       -0.002500        0.000000       -0.001711       -0.002500        0.000000       -0.001447       -0.002500        0.000000       -0.001184       -0.002500        0.000000       -0.000921       -0.002500        0.000000       -0.000658       -0.002500        0.000000       -0.000395       -0.002500        0.000000       -0.000132       -0.002500        0.000000        0.000132       -0.002500        0.000000        0.000395       -0.002500        0.000000        0.000658       -0.002500        0.000000        0.000921       -0.002500        0.000000        0.001184       -0.002500        0.000000        0.001447       -0.002500        0.000000        0.001711       -0.002500        0.000000        0.001974       -0.002500        0.000000        0.002237       -0.002500        0.000000        0.002500       -0.002500        0.000000
      -0.002500       -0.002237        0.000000       -0.002237       -0.002237        0.000000       -0.001974       -0.002237        0.000000       -0.001711       -0.002237        0.000000       -0.001447       -0.002237        0.000000       -0.001184       -0.002237        0.000000       -0.000921       -0.002237        0.000000       -0.000658       -0.002237        0.000000       -0.000395       -0.002237        0.000000       -0.000132       -0.002237        0.000000        0.000132       -0.002237        0.000000        0.000395       -0.002237        0.000000        0.000658       -0.002237        0.000000        0.000921       -0.002237        0.000000        0.001184       -0.002237        0.000000        0.001447       -0.002237        0.000000        0.001711       -0.002237        0.000000        0.001974       -0.002237        0.000000        0.002237       -0.002237        0.000000        0.002500       -0.002237        0.000000
      -0.002500       -0.001974        0.000000       -0.002237       -0.001974        0.000000       -0.001974       -0.001974        0.000000       -0.001711       -0.001974        0.000000       -0.001447       -0.001974        0.000000       -0.001184       -0.001974        0.000000       -0.000921       -0.001974        0.000000       -0.000658       -0.001974        0.000000       -0.000395       -0.001974        0.000000       -0.000132       -0.001974        0.000000        0.000132       -0.001974        0.000000        0.000395       -0.001974        0.000000        0.000658       -0.001974        0.000000        0.000921       -0.001974        0.000000        0.001184       -0.001974        0.000000        0.001447       -0.001974        0.000000        0.001711       -0.001974        0.000000        0.001974       -0.001974        0.000000        0.002237       -0.001974        0.000000        0.002500       -0.001974        0.000000
      -0.002500       -0.001711        0.000000       -0.002237       -0.001711        0.000000       -0.001974       -0.001711        0.000000       -0.001711       -0.001711        0.000000       -0.001447       -0.001711        0.000000       -0.001184       -0.001711        0.000000       -0.000921       -0.001711        0.000000       -0.000658       -0.001711        0.000000       -0.000395       -0.001711        0.000000       -0.000132       -0.001711        0.000000        0.000132       -0.001711        0.000000        0.000395       -0.001711        0.000000        0.000658       -0.001711        0.000000        0.000921       -0.001711        0.000000        0.001184       -0.001711        0.000000        0.001447       -0.001711        0.000000        0.001711       -0.001711        0.000000        0.001974       -0.001711        0.000000        0.002237       -0.001711        0.000000        0.002500       -0.001711        0.000000
      -0.002500       -0.001447        0.000000       -0.002237       -0.001447        0.000000       -0.001974       -0.001447        0.000000       -0.001711       -0.001447        0.000000       -0.001447       -0.001447        0.000000       -0.001184       -0.001447        0.000000       -0.000921       -0.001447        0.000000       -0.000658       -0.001447        0.000000       -0.000395       -0.001447        0.000000       -0.000132       -0.001447        0.000000        0.000132       -0.001447        0.000000        0.000395       -0.001447        0.000000        0.000658       -0.001447        0.000000        0.000921       -0.001447        0.000000        0.001184       -0.001447        0.000000        0.001447       -0.001447        0.000000        0.001711       -0.001447        0.000000        0.001974       -0.001447        0.000000        0.002237       -0.001447        0.000000        0.002500       -0.001447        0.000000
      -0.002500       -0.001184        0.000000       -0.002237       -0.001184        0.000000       -0.001974       -0.001184        0.000000       -0.001711       -0.001184        0.000000       -0.001447       -0.001184        0.000000       -0.001184       -0.001184        0.000000       -0.000921       -0.001184        0.000000       -0.000658       -0.001184        0.000000       -0.000395       -0.001184        0.000000       -0.000132       -0.001184        0.000000        0.000132       -0.001184        0.000000        0.000395       -0.001184        0.000000        0.000658       -0.001184        0.000000        0.000921       -0.001184        0.000000        0.001184       -0.001184        0.000000        0.001447       -0.001184        0.000000        0.001711       -0.001184        0.000000        0.001974       -0.001184        0.000000        0.002237       -0.001184        0.000000        0.002500       -0.001184        0.000000
      -0.002500       -0.000921        0.000000       -0.002237       -0.000921        0.000000       -0.001974       -0.000921        0.000000       -0.001711       -0.000921        0.000000       -0.001447       -0.000921        0.000000       -0.001184       -0.000921        0.000000       -0.000921       -0.000921        0.000000       -0.000658       -0.000921        0.000000       -0.000395       -0.000921        0.000000       -0.000132       -0.000921        0.000000        0.000132       -0.000921        0.000000        0.000395       -0.000921        0.000000        0.000658       -0.000921        0.000000        0.000921       -0.000921        0.000000        0.001184       -0.000921        0.000000        0.001447       -0.000921        0.000000        0.001711       -0.000921        0.000000        0.001974       -0.000921        0.000000        0.002237       -0.000921        0.000000        0.002500       -0.000921        0.000000
      -0.002500       -0.000658        0.000000       -0.002237       -0.000658        0.000000       -0.001974       -0.000658        0.000000       -0.001711       -0.000658        0.000000       -0.001447       -0.000658        0.000000       -0.001184       -0.000658        0.000000       -0.000921       -0.000658        0.000000       -0.000658       -0.000658        0.000000       -0.000395       -0.000658        0.000000       -0.000132       -0.000658        0.000000        0.000132       -0.000658        0.000000        0.000395       -0.000658        0.000000        0.000658       -0.000658        0.000000        0.000921       -0.000658        0.000000        0.001184       -0.000658        0.000000        0.001447       -0.000658        0.000000        0.001711       -0.000658        0.000000        0.001974       -0.000658        0.000000        0.002237       -0.000658        0.000000        0.002500       -0.000658        0.000000
      -0.002500       -0.000395        0.000000       -0.002237       -0.000395        0.000000       -0.001974       -0.000395        0.000000       -0.001711       -0.000395        0.000000       -0.001447       -0.000395        0.000000       -0.001184       -0.000395        0.000000       -0.000921       -0.000395        0.000000       -0.000658       -0.000395        0.000000       -0.000395       -0.000395        0.000000       -0.000132       -0.000395        0.000000        0.000132       -0.000395        0.000000        0.000395       -0.000395        0.000000        0.000658       -0.000395        0.000000        0.000921       -0.000395        0.000000        0.001184       -0.000395        0.000000        0.001447       -0.000395        0.000000        0.001711       -0.000395        0.000000        0.001974       -0.000395        0.000000        0.002237       -0.000395        0.000000        0.002500       -0.000395        0.000000
      -0.002500       -0.000132        0.000000       -0.002237       -0.000132        0.000000       -0.001974       -0.000132        0.000000       -0.001711       -0.000132        0.000000       -0.001447       -0.000132        0.000000       -0.001184       -0.000132        0.000000       -0.000921       -0.000132        0.000000       -0.000658       -0.000132        0.000000       -0.000395       -0.000132        0.000000       -0.000132       -0.000132        0.000000        0.000132       -0.000132        0.000000        0.000395       -0.000132        0.000000        0.000658       -0.000132        0.000000        0.000921       -0.000132        0.000000        0.001184       -0.000132        0.000000        0.001447       -0.000132        0.000000        0.001711       -0.000132        0.000000        0.001974       -0.000132        0.000000        0.002237       -0.000132        0.000000        0.002500       -0.000132        0.000000
      -0.002500        0.000132        0.000000       -0.002237        0.000132        0.000000       -0.001974        0.000132        0.000000       -0.001711        0.000132        0.000000       -0.001447        0.000132        0.000000       -0.001184        0.000132        0.000000       -0.000921        0.000132        0.000000       -0.000658        0.000132        0.000000       -0.000395        0.000132        0.000000       -0.000132        0.000132        0.000000        0.000132        0.000132        0.000000        0.000395        0.000132        0.000000        0.000658        0.000132        0.000000        0.000921        0.000132        0.000000        0.001184        0.000132        0.000000        0.001447        0.000132        0.000000        0.001711        0.000132        0.000000        0.001974        0.000132        0.000000        0.002237        0.000132        0.000000        0.002500        0.000132        0.000000
      -0.002500        0.000395        0.000000       -0.002237        0.000395        0.000000       -0.001974        0.000395        0.000000       -0.001711        0.000395        0.000000       -0.001447        0.000395        0.000000       -0.001184        0.000395        0.000000       -0.000921        0.000395        0.000000       -0.000658        0.000395        0.000000       -0.000395        0.000395        0.000000       -0.000132        0.000395        0.000000        0.000132        0.000395        0.000000        0.000395        0.000395        0.000000        0.000658        0.000395        0.000000        0.000921        0.000395        0.000000        0.001184        0.000395        0.000000        0.001447        0.000395        0.000000        0.001711        0.000395        0.000000        0.001974        0.000395        0.000000        0.002237        0.000395        0.000000        0.002500        0.000395        0.000000
      -0.002500        0.000658        0.000000       -0.002237        0.000658        0.000000       -0.001974        0.000658        0.000000       -0.001711        0.000658        0.000000       -0.001447        0.000658        0.000000       -0.001184        0.000658        0.000000       -0.000921        0.000658        0.000000       -0.000658        0.000658        0.000000       -0.000395        0.000658        0.000000       -0.000132        0.000658        0.000000        0.000132        0.000658        0.000000        0.000395        0.000658        0.000000        0.000658        0.000658        0.000000        0.000921        0.000658        0.000000        0.001184        0.000658        0.000000        0.001447        0.000658        0.000000        0.001711        0.000658        0.000000        0.001974        0.000658        0.000000        0.002237        0.000658        0.000000        0.002500        0.000658        0.000000
      -0.002500        0.000921        0.000000       -0.002237        0.000921        0.000000       -0.001974        0.000921        0.000000       -0.001711        0.000921        0.000000       -0.001447        0.000921        0.000000       -0.001184        0.000921        0.000000       -0.000921        0.000921        0.000000       -0.000658        0.000921        0.000000       -0.000395        0.000921        0.000000       -0.000132        0.000921        0.000000        0.000132        0.000921        0.000000        0.000395        0.000921        0.000000        0.000658        0.000921        0.000000        0.000921        0.000921        0.000000        0.001184        0.000921        0.000000        0.001447        0.000921        0.000000        0.001711        0.000921        0.000000        0.001974        0.000921        0.000000        0.002237        0.000921        0.000000        0.002500        0.000921        0.000000
      -0.002500        0.001184        0.000000       -0.002237        0.001184        0.000000       -0.001974        0.001184        0.000000       -0.001711        0.001184        0.000000       -0.001447        0.001184        0.000000       -0.001184        0.001184        0.000000       -0.000921        0.001184        0.000000       -0.000658        0.001184        0.000000       -0.000395        0.001184        0.000000       -0.000132        0.001184        0.000000        0.000132        0.001184        0.000000        0.000395        0.001184        0.000000        0.000658        0.001184        0.000000        0.000921        0.001184        0.000000        0.001184        0.001184        0.000000        0.001447        0.001184        0.000000        0.001711        0.001184        0.000000        0.001974        0.001184        0.000000        0.002237        0.001184        0.000000        0.002500        0.001184        0.000000
      -0.002500        0.001447        0.000000       -0.002237        0.001447        0.000000       -0.001974        0.001447        0.000000       -0.001711        0.001447        0.000000       -0.001447        0.001447        0.000000       -0.001184        0.001447        0.000000       -0.000921        0.001447        0.000000       -0.000658        0.001447        0.000000       -0.000395        0.001447        0.000000       -0.000132        0.001447        0.000000        0.000132        0.001447        0.000000        0.000395        0.001447        0.000000        0.000658        0.001447        0.000000        0.000921        0.001447        0.000000        0.001184        0.001447        0.000000        0.001447        0.001447        0.000000        0.001711        0.001447        0.000000        0.001974        0.001447        0.000000        0.002237        0.001447        0.000000        0.002500        0.001447        0.000000
      -0.002500        0.001711        0.000000       -0.002237        0.001711        0.000000       -0.001974        0.001711        0.000000       -0.001711        0.001711        0.000000       -0.001447        0.001711        0.000000       -0.001184        0.001711        0.000000       -0.000921        0.001711        0.000000       -0.000658        0.001711        0.000000       -0.000395        0.001711        0.000000       -0.000132        0.001711        0.000000        0.000132        0.001711        0.000000        0.000395        0.001711        0.000000        0.000658        0.001711        0.000000        0.000921        0.001711        0.000000        0.001184        0.001711        0.000000        0.001447        0.001711        0.000000        0.001711        0.001711        0.000000        0.001974        0.001711        0.000000        0.002237        0.001711        0.000000        0.002500        0.001711        0.000000
      -0.002500        0.001974        0.000000       -0.002237        0.001974        0.000000       -0.001974        0.001974        0.000000       -0.001711        0.001974        0.000000       -0.001447        0.001974        0.000000       -0.001184        0.001974        0.000000       -0.000921        0.001974        0.000000       -0.000658        0.001974        0.000000       -0.000395        0.001974        0.000000       -0.000132        0.001974        0.000000        0.000132        0.001974        0.000000        0.000395        0.001974        0.000000        0.000658        0.001974        0.000000        0.000921        0.001974        0.000000        0.001184        0.001974        0.000000        0.001447        0.001974        0.000000        0.001711        0.001974        0.000000        0.001974        0.001974        0.000000        0.002237        0.001974        0.000000        0.002500        0.001974        0.000000
      -0.002500        0.002237        0.000000       -0.002237        0.002237        0.000000       -0.001974        0.002237        0.000000       -0.001711        0.002237        0.000000       -0.001447        0.002237        0.000000       -0.001184        0.002237        0.000000       -0.000921        0.002237        0.000000       -0.000658        0.002237        0.000000       -0.000395        0.002237        0.000000       -0.000132        0.002237        0.000000        0.000132        0.002237        0.000000        0.000395        0.002237        0.000000        0.000658        0.002237        0.000000        0.000921        0.002237        0.000000        0.001184        0.002237        0.000000        0.001447        0.002237        0.000000        0.001711        0.002237        0.000000        0.001974        0.002237        0.000000        0.002237        0.002237        0.000000        0.002500        0.002237        0.000000
      -0.002500        0.002500        0.000000       -0.002237        0.002500        0.000000       -0.001974        0.002500        0.000000       -0.001711        0.002500        0.000000       -0.001447        0.002500        0.000000       -0.001184        0.002500        0.000000       -0.000921        0.002500        0.000000       -0.000658        0.002500        0.000000       -0.000395        0.002500        0.000000       -0.000132        0.002500        0.000000        0.000132        0.002500        0.000000        0.000395        0.002500        0.000000        0.000658        0.002500        0.000000        0.000921        0.002500        0.000000        0.001184        0.002500        0.000000        0.001447        0.002500        0.000000        0.001711        0.002500        0.000000        0.001974        0.002500        0.000000        0.002237        0.002500        0.000000        0.002500        0.002500        0.000000
</Points>
<CellData Scalars="Température, U, V">
<DataArray type="Float32" Name="Temp, K"/>
     293.054021      292.194002      291.285751      290.403670      289.569410      288.802213      288.122380      287.551096      287.109601      286.813943      286.696440      286.759612      287.010280      287.448666      288.067753      288.853049      289.782905      290.829793      291.956747
     293.927754      293.315660      292.406750      291.465525      290.544125      289.666945      288.857342      288.139947      287.539963      287.069256      286.788850      286.690825      286.785474      287.076161      287.558742      288.221562      289.047279      290.025617      291.222828
     294.600704      294.359212      293.527386      292.562987      291.580155      290.615138      289.694735      288.846716      288.099979      287.456882      287.016787      286.757334      286.692283      286.828149      287.163745      287.691017      288.402611      289.332302      290.689393
     295.110726      295.286200      294.604656      293.659566      292.644750      291.617257      290.608522      289.649157      288.771395      287.963938      287.370943      286.953291      286.728204      286.705365      286.886787      287.269805      287.865581      288.770779      290.312947
     295.496382      296.087884      295.608635      294.722784      293.706640      292.644366      291.572739      290.524705      289.535359      288.577059      287.841514      287.272381      286.890323      286.708285      286.732219      286.968310      287.454588      288.351916      290.059180
     295.907731      296.903097      296.594296      295.748039      294.741193      293.669398      292.562184      291.450997      290.372805      289.282544      288.418307      287.707900      287.175442      286.837851      286.709785      286.822578      287.260217      288.207495      290.016445
     299.405894      299.866496      298.502026      296.982830      295.770831      294.672111      293.553204      292.406258      291.264713      290.066372      289.090691      288.252696      287.580488      287.101841      286.884529      287.144198      288.276751      290.440039      293.151893
     342.365921      325.552302      309.288256      300.494768      297.134200      295.669041      294.525984      293.369631      292.192258      290.914121      289.847439      288.899126      288.105985      287.559121      287.716340      290.276254      298.756962      315.476526      335.237989
     535.604722      437.678635      354.188324      313.077703      300.034557      296.779777      295.469485      294.321508      293.136881      291.810802      290.676490      289.639233      288.764806      288.418259      290.748344      303.827450      344.786831      426.528479      525.263046
     715.265088      545.295345      398.757059      325.905908      302.994288      297.887704      296.439639      295.345623      294.195839      292.861468      291.681298      290.567266      289.618342      289.497505      294.121546      317.922051      390.686000      533.203232      701.944912
     537.221669      440.579987      356.521509      314.636955      301.411765      298.306067      297.192835      296.198792      295.107014      293.802920      292.615708      291.464657      290.423080      289.880665      292.090726      305.401885      347.135174      429.378621      526.841282
     344.144544      328.829548      312.228109      302.950424      299.691881      298.612333      297.850582      296.979877      295.972603      294.733264      293.568094      292.408344      291.301935      290.367741      290.168919      292.687343      301.673578      318.685583      336.973749
     300.044994      301.481317      300.792846      299.899311      299.390718      298.970119      298.412928      297.675143      296.776119      295.633785      294.519680      293.381348      292.260045      291.203175      290.319760      289.915329      290.468476      291.993716      293.772984
     296.321487      298.302714      299.134419      299.406153      299.430156      299.251230      298.862075      298.271248      297.501514      296.485005      295.450040      294.362380      293.261491      292.183894      291.169734      290.286453      289.663123      289.537858      290.416345
     295.990167      297.769696      298.694855      299.181499      299.406840      299.407093      299.186979      298.755958      298.133126      297.266757      296.337214      295.328319      294.277716      293.219975      292.186820      291.215668      290.388859      289.956402      290.537489
     295.719766      297.312300      298.251503      298.867073      299.256015      299.427804      299.380136      299.117937      298.655686      297.958391      297.157913      296.254051      295.281828      294.274126      293.260746      292.271719      291.362314      290.717991      290.905479
     295.333837      296.730130      297.693136      298.430562      298.973165      299.311025      299.435459      299.346699      299.054431      298.539125      297.887908      297.112684      296.245009      295.315342      294.351737      293.380378      292.436606      291.631544      291.406696
     294.790730      296.016219      297.024251      297.877404      298.561535      299.056184      299.347993      299.432758      299.315367      298.988589      298.502647      297.876176      297.136494      296.310826      295.424917      294.502426      293.567562      292.671773      292.073076
     294.048334      295.192238      296.261888      297.216838      298.025881      298.663985      299.114130      299.367970      299.425707      299.287565      298.978122      298.516291      297.924511      297.226028      296.443538      295.598338      294.710215      293.801057      292.944544
<DataArray type="Float32" Name="Vitesse u, m/s"/>
       0.004115        0.004003        0.003781        0.003457        0.003038        0.002536        0.001965        0.001341        0.000680        0.000000       -0.000680       -0.001341       -0.001965       -0.002536       -0.003038       -0.003457       -0.003781       -0.004003       -0.004115
       0.012232        0.011899        0.011240        0.010276        0.009030        0.007539        0.005842        0.003985        0.002020        0.000000       -0.002020       -0.003985       -0.005842       -0.007539       -0.009030       -0.010276       -0.011240       -0.011899       -0.012232
       0.020016        0.019470        0.018393        0.016814        0.014777        0.012336        0.009559        0.006522        0.003306        0.000000       -0.003306       -0.006522       -0.009559       -0.012336       -0.014777       -0.016814       -0.018393       -0.019470       -0.020016
       0.027254        0.026511        0.025044        0.022894        0.020120        0.016797        0.013016        0.008880        0.004501        0.000000       -0.004501       -0.008880       -0.013016       -0.016797       -0.020120       -0.022894       -0.025044       -0.026511       -0.027254
       0.033748        0.032828        0.031012        0.028350        0.024915        0.020800        0.016118        0.010996        0.005574        0.000000       -0.005574       -0.010996       -0.016118       -0.020800       -0.024915       -0.028350       -0.031012       -0.032828       -0.033748
       0.039322        0.038250        0.036134        0.033032        0.029029        0.024235        0.018779        0.012812        0.006494        0.000000       -0.006494       -0.012812       -0.018779       -0.024235       -0.029029       -0.033032       -0.036134       -0.038250       -0.039322
       0.043823        0.042628        0.040270        0.036813        0.032352        0.027009        0.020929        0.014278        0.007238        0.000000       -0.007238       -0.014278       -0.020929       -0.027009       -0.032352       -0.036813       -0.040270       -0.042628       -0.043823
       0.047129        0.045844        0.043308        0.039590        0.034793        0.029047        0.022508        0.015355        0.007784        0.000000       -0.007784       -0.015355       -0.022508       -0.029047       -0.034793       -0.039590       -0.043308       -0.045844       -0.047129
       0.049150        0.047809        0.045164        0.041287        0.036284        0.030292        0.023473        0.016014        0.008117        0.000000       -0.008117       -0.016014       -0.023473       -0.030292       -0.036284       -0.041287       -0.045164       -0.047809       -0.049150
       0.049829        0.048470        0.045789        0.041858        0.036786        0.030711        0.023797        0.016235        0.008230        0.000000       -0.008230       -0.016235       -0.023797       -0.030711       -0.036786       -0.041858       -0.045789       -0.048470       -0.049829
       0.049150        0.047809        0.045164        0.041287        0.036284        0.030292        0.023473        0.016014        0.008117        0.000000       -0.008117       -0.016014       -0.023473       -0.030292       -0.036284       -0.041287       -0.045164       -0.047809       -0.049150
       0.047129        0.045844        0.043308        0.039590        0.034793        0.029047        0.022508        0.015355        0.007784        0.000000       -0.007784       -0.015355       -0.022508       -0.029047       -0.034793       -0.039590       -0.043308       -0.045844       -0.047129
       0.043823        0.042628        0.040270        0.036813        0.032352        0.027009        0.020929        0.014278        0.007238        0.000000       -0.007238       -0.014278       -0.020929       -0.027009       -0.032352       -0.036813       -0.040270       -0.042628       -0.043823
       0.039322        0.038250        0.036134        0.033032        0.029029        0.024235        0.018779        0.012812        0.006494        0.000000       -0.006494       -0.012812       -0.018779       -0.024235       -0.029029       -0.033032       -0.036134       -0.038250       -0.039322
       0.033748        0.032828        0.031012        0.028350        0.024915        0.020800        0.016118        0.010996        0.005574        0.000000       -0.005574       -0.010996       -0.016118       -0.020800       -0.024915       -0.028350       -0.031012       -0.032828       -0.033748