<?xml version="1.0"?>
<VTKFile type="StructuredGrid">
<StructuredGrid WholeExtent="     0    99     0    99     0     0">
<Piece Extent="     0    99     0    99     0     0">
<Points>
<DataArray type="Float32" NumberOfComponents="3"/>
      -0.002500       -0.002500        0.000000       -0.002449       -0.002500        0.000000       -0.002399       -0.002500        0.000000       -0.002348       -0.002500        0.000000       -0.002298       -0.002500        0.000000       -0.002247       -0.002500        0.000000       -0.002197       -0.002500        0.000000       -0.002146       -0.002500        0.000000       -0.002096       -0.002500        0.000000       -0.002045       -0.002500        0.000000       -0.001995       -0.002500        0.000000       -0.001944       -0.002500        0.000000       -0.001894       -0.002500        0.000000       -0.001843       -0.002500        0.000000       -0.001793       -0.002500        0.000000       -0.001742       -0.002500        0.000000       -0.001692       -0.002500        0.000000       -0.001641       -0.002500        0.000000       -0.001591       -0.002500        0.000000       -0.001540       -0.002500        0.000000       -0.001490       -0.002500        0.000000       -0.001439       -0.002500        0.000000       -0.001389       -0.002500        0.000000       -0.001338       -0.002500        0.000000       -0.001288       -0.002500        0.000000       -0.001237       -0.002500        0.000000       -0.001187       -0.002500        0.000000       -0.001136       -0.002500        0.000000       -0.001086       -0.002500        0.000000       -0.001035       -0.002500        0.000000       -0.000985       -0.002500        0.000000       -0.000934       -0.002500        0.000000       -0.000884       -0.002500        0.000000       -0.000833       -0.002500        0.000000       -0.000783       -0.002500        0.000000       -0.000732       -0.002500        0.000000       -0.000682       -0.002500        0.000000       -0.000631       -0.002500        0.000000       -0.000581       -0.002500        0.000000       -0.000530       -0.002500        0.000000       -0.000480       -0.002500        0.000000       -0.000429       -0.002500        0.000000       -0.000379       -0.002500        0.000000       -0.000328       -0.002500        0.000000       -0.000278       -0.002500        0.000000       -0.000227       -0.002500        0.000000       -0.000177       -0.002500        0.000000       -0.000126       -0.002500        0.000000       -0.000076       -0.002500        0.000000       -0.000025       -0.002500        0.000000        0.000025       -0.002500        0.000000        0.000076       -0.002500        0.000000        0.000126       -0.002500        0.000000        0.000177       -0.002500        0.000000        0.000227       -0.002500        0.000000        0.000278       -0.002500        0.000000        0.000328       -0.002500        0.000000        0.000379       -0.002500        0.000000        0.000429       -0.002500        0.000000        0.000480       -0.002500        0.000000        0.000530       -0.002500        0.000000        0.000581       -0.002500        0.000000        0.000631       -0.002500        0.000000        0.000682       -0.002500        0.000000        0.000732       -0.002500        0.000000        0.000783       -0.002500        0.000000        0.000833       -0.002500        0.000000        0.000884       -0.002500        0.000000        0.000934       -0.002500        0.000000        0.000985       -0.002500        0.000000        0.001035       -0.002500        0.000000        0.001086       -0.002500        0.000000        0.001136       -0.002500        0.000000        0.001187       -0.002500        0.000000        0.001237       -0.002500        0.000000        0.001288       -0.002500        0.000000        0.001338       -0.002500        0.000000        0.001389       -0.002500        0.000000        0.001439       -0.002500        0.000000        0.001490       -0.002500        0.000000        0.001540       -0.002500        0.000000        0.001591       -0.002500        0.000000        0.001641       -0.002500        0.000000        0.001692       -0.002500        0.000000        0.001742       -0.002500        0.000000        0.001793       -0.002500        0.000000        0.001843       -0.002500        0.000000        0.001894       -0.002500        0.000000        0.001944       -0.002500        0.000000        0.001995       -0.002500        0.000000        0.002045       -0.002500        0.000000        0.002096       -0.002500        0.000000        0.002146       -0.002500        0.000000        0.002197       -0.002500        0.000000        0.002247       -0.002500        0.000000        0.002298       -0.002500        0.000000        0.002348       -0.002500        0.000000        0.002399       -0.002500        0.000000        0.002449       -0.002500        0.000000        0.002500       -0.002500        0.000000
      -0.002500       -0.002449        0.000000       -0.002449       -0.002449        0.000000       -0.002399       -0.002449        0.000000       -0.002348       -0.002449        0.000000       -0.002298       -0.002449        0.000000       -0.002247       -0.002449        0.000000       -0.002197       -0.002449        0.000000       -0.002146       -0.002449        0.000000       -0.002096       -0.002449        0.000000       -0.002045       -0.002449        0.000000       -0.001995       -0.002449        0.000000       -0.001944       -0.002449        0.000000       -0.001894       -0.002449        0.000000       -0.001843       -0.002449        0.000000       -0.001793       -0.002449        0.000000       -0.001742       -0.002449        0.000000       -0.001692       -0.002449        0.000000       -0.001641       -0.002449        0.000000       -0.001591       -0.002449        0.000000       -0.001540       -0.002449        0.000000       -0.001490       -0.002449        0.000000       -0.001439       -0.002449        0.000000       -0.001389       -0.002449        0.000000       -0.001338       -0.002449        0.000000       -0.001288       -0.002449        0.000000       -0.001237       -0.002449        0.000000       -0.001187       -0.002449        0.000000       -0.001136       -0.002449        0.000000       -0.001086       -0.002449        0.000000       -0.001035       -0.002449        0.000000       -0.000985       -0.002449        0.000000       -0.000934       -0.002449        0.000000       -0.000884       -0.002449        0.000000       -0.000833       -0.002449        0.000000       -0.000783       -0.002449        0.000000       -0.000732       -0.002449        0.000000       -0.000682       -0.002449        0.000000       -0.000631       -0.002449        0.000000       -0.000581       -0.002449        0.000000       -0.000530       -0.002449        0.000000       -0.000480       -0.002449        0.000000       -0.000429       -0.002449        0.000000       -0.000379       -0.002449        0.000000       -0.000328       -0.002449        0.000000       -0.000278       -0.002449        0.000000       -0.000227       -0.002449        0.000000       -0.000177       -0.002449        0.000000       -0.000126       -0.002449        0.000000       -0.000076       -0.002449        0.000000       -0.000025       -0.002449        0.000000        0.000025       -0.002449        0.000000        0.000076       -0.002449        0.000000        0.000126       -0.002449        0.000000        0.000177       -0.002449        0.000000        0.000227       -0.002449        0.000000        0.000278       -0.002449        0.000000        0.000328       -0.002449        0.000000        0.000379       -0.002449        0.000000        0.000429       -0.002449        0.000000        0.000480       -0.002449        0.000000        0.000530       -0.002449        0.000000        0.000581       -0.002449        0.000000        0.000631       -0.002449        0.000000        0.000682       -0.002449        0.000000        0.000732       -0.002449        0.000000        0.000783       -0.002449        0.000000        0.000833       -0.002449        0.000000        0.000884       -0.002449        0.000000        0.000934       -0.002449        0.000000        0.000985       -0.002449        0.000000        0.001035       -0.002449        0.000000        0.001086       -0.002449        0.000000        0.001136       -0.002449        0.000000        0.001187       -0.002449        0.000000        0.001237       -0.002449        0.000000        0.001288       -0.002449        0.000000        0.001338       -0.002449        0.000000        0.001389       -0.002449        0.000000        0.001439       -0.002449        0.000000        0.001490       -0.002449        0.000000        0.001540       -0.002449        0.000000        0.001591       -0.002449        0.000000        0.001641       -0.002449        0.000000        0.001692       -0.002449        0.000000        0.001742       -0.002449        0.000000        0.001793       -0.002449        0.000000        0.001843       -0.002449        0.000000        0.001894       -0.002449        0.000000        0.001944       -0.002449        0.000000        0.001995       -0.002449        0.000000        0.002045       -0.002449        0.000000        0.002096       -0.002449        0.000000        0.002146       -0.002449        0.000000        0.002197       -0.002449        0.000000        0.002247       -0.002449        0.000000        0.002298       -0.002449        0.000000        0.002348       -0.002449        0.000000        0.002399       -0.002449        0.000000        0.002449       -0.002449        0.000000        0.002500       -0.002449        0.000000
[...]
<CellData Scalars="Temprature, U, V">
<DataArray type="Float32" Name="Temp, K"/>
     292.889263      294.075057      293.976656      290.365911      283.965685      277.561419      270.181448      259.289423      247.994796      240.298119      233.113660      223.221424      214.593078      210.320295      206.884779      201.434143      195.039101      188.880666      186.824245      194.717468      204.763846      192.054504      147.204958      102.135336      102.284214      154.676338      221.826958      256.984781      260.271450      236.489957      158.217910     -638.043343    -5465.243611   -28336.322384  -117333.121747  -413390.318956 -1279089.051508 -3531777.526094 -8798493.214722 *************** *************** *************** *************** *************** *************** *************** *************** *************** *************** *************** *************** *************** *************** *************** *************** *************** *************** *************** *************** *************** *************** -4605250.512472 -1714958.850982  -571575.256095  -168025.087287   -42481.649622    -8784.405460    -1262.320280       46.369236      188.840429      193.918850      204.579418      200.845764      170.706502      152.152975      226.881966      342.683664      231.704019     -140.785787     -145.220072      592.329095      938.347804     -149.324802     -971.733733      395.987413     1677.788566      157.502907    -1328.884974      264.988898     1654.195672      136.752429     -857.736196      476.202126     1031.646221       31.286902     -150.823932      532.189685      519.184679     -179.354829
     291.993500      294.101401      296.666438      294.645698      284.918129      272.129863      259.756175      242.573668      219.459108      199.691898      185.762939      169.252560      149.712525      135.837534      128.012515      119.578906      109.030366       96.249960       81.649899       79.226858      103.664948      129.571027      100.051672        1.441637      -99.614277     -120.598367      -48.503143       49.320699      129.420256      146.628297      138.853157     -694.396366    -6483.842401   -36543.144402  -159297.334678  -582607.474855 -1852383.031931 -5222497.355694 *************** *************** *************** *************** *************** *************** *************** *************** *************** *************** *************** *************** *************** *************** *************** *************** *************** *************** *************** *************** *************** *************** *************** -6904351.002553 -2524212.200878  -821382.317315  -233785.893289   -56448.895703   -10943.614277    -1436.838287        6.544215      114.645527      103.435543      106.180488       71.096970       31.128960       78.642451      230.516247      212.752679     -217.524526     -500.559632      256.991577     1240.368489      339.185565    -1575.576323     -714.961090     2159.971198     1470.109851    -2020.371261    -1348.151951     2299.488037     1512.395318    -1677.666085     -626.992926     1788.249750      664.179968     -818.571482      237.340714     1036.546867      131.744094     -592.073279
     291.303851      292.393157      295.744218      300.213575      298.480325      287.163323      274.341853      263.705867      245.987725      220.414308      200.550645      188.326386      171.745903      150.910156      136.493562      128.512067      121.722784      115.991297      102.477342       70.974907       50.106903       92.181565      183.705155      221.696050      124.865400      -58.563272     -201.475652     -221.540113     -143.049367      -57.257844        3.578221       32.549603      734.361408     5177.928082    26921.254477   109160.798180   374126.334638  1116269.326701  2954997.098287  7031578.035748 15169343.215176 29862418.592418 53896801.220380 89513349.049982 *************** *************** *************** *************** *************** *************** *************** *************** *************** *************** *************** *************** 63644398.167455 36177423.873746 18872399.219723  8995226.198739  3894908.060294  1519830.997519   528532.108973   161020.925558    41840.152761     8850.494531     1346.875194      131.143659       35.556724       64.976029       56.313877       24.293692       -6.664552       44.793122      163.592811      115.206597     -252.495393     -400.373125      399.384909     1256.985864      181.575883    -1784.903328     -684.168867     2585.721618     1706.570511    -2608.696342    -1862.417407     2998.091581     2191.051572    -2427.996353    -1273.827514     2531.189948     1142.338842    -1453.140760      -35.997814     1508.245312      351.380671     -736.094651     -540.829658
     290.967424      291.700899      293.045820      298.055105      305.035767      303.085302      289.373153      277.032046      268.852872      250.036533      221.355569      201.666695      191.345610      174.657129      153.085844      137.807911      126.738449      120.897976      128.705040      125.502055       67.475405      -11.668333        7.558951      174.921571      364.830040      400.054179      241.237113       23.509057     -128.556196     -162.077033     -225.944432     -230.601260     1535.541614    16103.598076    90080.360765   380549.535546  1332921.089975  4032079.713846 10773808.425563 25801088.769430 55918287.543813 *************** *************** *************** *************** *************** *************** *************** *************** *************** *************** *************** *************** *************** *************** *************** *************** *************** 70091862.662375 33302854.340160 14351319.695058  5560368.755339  1912833.552054   573073.323316   144680.718590    28762.331468     3738.826812        0.087127     -131.938822      -36.982953      -37.260718      -49.120562       13.984660      115.218014       65.794035     -216.232063     -247.627223      522.113884     1192.534300       -6.891778    -1910.341024     -583.690480     2961.266161     1899.143410    -3192.946957    -2441.571640     3733.318897     3089.697001    -3257.942566    -2265.067172     3414.415263     1999.288643    -2279.473195     -620.165092     2169.316290      744.157342    -1036.390182     -679.326127     -251.971634
     290.445234      291.699256      292.547497      293.840559      301.211632      311.401647      308.316800      291.340618      280.381692      275.359193      254.621129      222.331100      203.195860      194.484001      177.572620      157.399716      141.860520      120.650940      108.581575      142.676115      182.562945      111.460494      -76.168171     -185.408488      -32.839020      308.921947      581.541473      610.606784      437.353519      232.502939      104.327900      139.386173       87.728406    -1577.428023   -13383.067122   -66584.469095  -257383.961601  -833479.518256 -2342745.446835 -5836087.435057 *************** *************** *************** *************** *************** *************** *************** *************** *************** *************** *************** *************** *************** *************** *************** *************** *************** *************** *************** -7706408.287353 -3207759.205973 -1189040.578007  -385784.741662  -106423.633068   -23601.299877    -3613.776621      -92.415977      142.621481       53.307985        2.396753       18.037311       91.409042      176.822551      120.237668     -100.245517      -73.167094      589.951644     1040.014858     -207.551016    -1930.158787     -412.298392     3247.373927     2013.543627    -3724.121449    -3035.140190     4443.380143     4185.698174    -4084.042758    -3649.966393     4344.237128     3368.004533    -3228.416977    -1693.099890     3002.084968     1475.986378    -1494.635496     -986.341506      -47.549309     -274.796621
     289.740084      290.971453      293.268190      293.694562      294.603581      305.516240      319.581831      313.903780      292.912462      284.677734      283.298240      259.544203      223.581355      205.587413      196.968378      178.914101      165.563949      154.886113      111.316355       68.469488      132.560820      276.083322      268.998908      -25.372898     -392.512012     -476.642733     -180.568097      244.182867      514.157701      530.537652      481.348685      658.098662      868.688192    -3741.482009   -40542.562515  -215951.836888  -860876.832748 -2836956.697309 -8063208.204111 *************** *************** *************** *************** *************** *************** *************** *************** *************** *************** *************** *************** *************** *************** *************** *************** *************** *************** *************** *************** *************** *************** -4106033.371764 -1314767.106849  -354674.265996   -75222.889947   -10158.608096      241.687451      624.341602      244.001835      165.508686      234.682075      291.932722      209.842829       11.604692       39.652556      554.063952      803.442638     -390.774120    -1828.262506     -178.009858     3410.570460     2020.271907    -4154.308679    -3575.361251     5062.962483     5410.607317    -4803.148535    -5417.961864     5172.372244     5340.627906    -4141.658310    -3440.712936     3898.216508     2759.045292    -2076.476035    -1609.802811      252.813960      -96.546281     -488.354112
     289.303078      289.869506      292.309764      295.817776      294.852269      295.190030      311.444326      329.766466      319.442706      294.066660      290.327189      292.581028      264.371123      225.655617      210.179580      197.604338      174.083488      177.809962      190.226663      113.094398      -15.208764       39.011505      345.374337      565.160051      319.041393     -301.070519     -810.753088     -863.444359     -533.651219     -137.584256      106.202124       95.067524     -135.588231      -71.528152     4791.264895    34534.589280   158037.070664   566671.964587  1707935.504133  4478011.489580 10414974.415772 21760056.496114 41192071.152987 71087713.003525 *************** *************** *************** *************** *************** *************** *************** *************** *************** *************** *************** 84526848.229682 50551205.448364 27607187.367522 13692545.763274  6121280.506975  2440175.975056   853357.519306   254851.339289    61750.037074    10697.671691      691.501509     -251.281156        0.904811      161.047012      237.727022      238.139975      125.184898      -50.755484      -12.946677      391.209958      525.459396     -504.573937    -1593.110798       99.458210     3425.001273     1900.562750    -4443.328561    -3988.030471     5535.679939     6653.378481    -5314.880088    -7478.607068     5719.998409     7918.737773    -4773.577232    -5994.560350     4622.173773     4817.389106    -2639.914846    -2762.755077      629.974439      307.300783     -701.444017     -403.216357
     289.055565      289.626431      290.384667      294.715302      299.447056      295.551992      295.593581      319.640394      341.964457      324.420903      294.981606      297.930149      302.901555      268.010301      229.370734      220.546743      195.995482      152.777628      186.199044      266.342255      169.235290     -125.509763     -212.424072      222.923069      844.949530      987.789283      436.965050     -362.732919     -854.680122     -852.293856     -592.355178     -546.039085    -1242.529609    -1545.467489    11819.098254   102850.843112   495115.162399  1817407.783987  5551298.285965 14676150.475865 34322206.774032 71979450.508399 *************** *************** *************** *************** *************** *************** *************** *************** *************** *************** *************** *************** *************** *************** *************** 91965845.893918 45506257.648545 20268777.225987  8032583.026624  2782342.690098   817263.484616   191611.286682    30303.637646      591.532162    -1388.228628     -403.914493        1.854628       -6.004900     -150.838193     -279.638662     -183.029749      196.543262      319.326117     -476.968710    -1229.360804      379.881028     3270.249901     1651.417259    -4561.959260    -4205.919985     5824.022958     7775.794491    -5546.803882    -9660.329094     5820.584250    10974.844228    -4829.925227    -9354.291597     4809.837728     7804.852129    -2880.754108    -4680.361878      941.297564     1141.178786     -992.823014     -605.972884     -139.003223
     288.488571      289.788367      290.276351      291.218036      298.629159      304.094498      295.165145      296.076037      330.849915      355.929708      328.229023      296.045362      308.546641      313.835954      267.744526      234.997016      244.632451      196.884601       98.320227      161.897856      389.337162      356.171269     -159.741120     -618.319118     -301.583924      699.476989     1536.980088     1572.400493      942.078997      220.331356     -196.400527     -229.325413       80.946763      695.681005     -217.220571   -13927.407663   -85167.705166  -349862.036939 -1146124.711122 -3183085.702276 -7724393.465058 *************** *************** *************** *************** *************** *************** *************** *************** *************** *************** *************** *************** *************** *************** *************** *************** *************** *************** -4518659.483478 -1717795.068271  -561805.894272  -151291.857510   -30260.805780    -2885.097640      743.289349      409.651246       27.780550     -144.863677     -263.278293     -302.921984     -135.605971      230.407397      344.296421     -267.277271     -796.028910      588.145811     2931.498447     1293.168624    -4489.618101    -4181.629409     5912.983627     8636.616479    -5473.614338   -11732.518746     5369.646801    14244.431933    -4041.897695   -13323.407997     4024.858348    11694.206966    -2323.673848    -7517.546324      853.638451     2640.635731    -1245.161354    -1133.722401      127.226296     -232.100550
     287.694996      288.970057      291.362620      290.903888      292.484927      304.656242      309.387043      293.018745      297.253887      345.810179      371.192086      330.052194      297.687248      324.365587      325.495010      257.615665      239.349255      296.216717      219.469560       -3.739940       43.135189      511.028637      741.683285       97.238292     -942.903123    -1219.509230     -307.213502     1045.053134     1845.244072     1772.279165     1190.887497      720.143575     1100.880587     2880.196653     1355.918171   -37044.599972  -249359.352622 -1057712.140036 -3520603.832715 -9867717.654867 *************** *************** *************** *************** *************** *************** *************** *************** *************** *************** *************** *************** *************** *************** *************** *************** *************** *************** *************** *************** -5350086.760268 -1730899.597373  -456537.556201   -86834.092161    -6227.960812     3010.796395     1392.110951      249.845342        2.597436       87.299018      325.853331      618.164090      616.599820       30.809933     -442.175373      619.903619     2415.899010      882.640491    -4208.497716    -3898.931771     5805.105772     9117.857055    -5122.742444   -13446.837824     4363.827980    17359.570103    -2256.225080   -17492.489748     1875.144424    16180.128356     -395.954845   -11201.752230     -176.664897     4961.056425    -1139.162507    -2215.284838      401.591450       70.062078     -563.351297
     287.310526      287.617319      290.508099      293.707692      291.016237      294.648263      313.417302      314.539926      288.604118      300.034589      365.197235      387.313539      328.462177      299.758280      349.901967      340.580926      226.899664      229.254377      391.317737      309.616928     -139.168700     -254.674927      480.764886     1273.194032      869.585914     -681.439316    -1987.111448    -1960.053952     -851.663280      336.097527      932.428827      913.788459      501.731734     -319.644409    -1154.266953     3315.377078    39307.634140   195666.821493   709223.664243  2101794.366883  5339881.977590 11926513.314545 23776625.786120 42737038.467047 69742883.472374 *************** *************** *************** *************** *************** *************** *************** *************** *************** 82709265.128836 52604472.460863 30442868.808094 15934262.632839  7479307.686871  3108988.698240  1122061.896794   339625.679228    80120.238976    11702.596398     -500.560799     -816.804034      -82.058315      274.328057      479.749004      704.782879      871.843773      714.066283       91.397863     -374.849509      414.705983     1801.631708      526.440676    -3705.639352    -3385.610382     5508.265508     9147.197623    -4563.006449   -14586.071298     2913.164358    19919.527415      491.030981   -21292.458113    -1839.094499    20651.716283     3405.644314   -15296.947687    -2817.219156     7997.939850     -114.056157    -4016.784211      418.291347      809.083983     -856.526797     -467.042135
     287.300389      287.442114      288.000818      293.522437      296.424801      290.134826      298.638681      325.259402      318.446524      281.790087      305.264525      389.801838      404.568884      320.568961      299.925216      393.314439      368.983013      161.397709      171.709952      532.222439      542.513148     -220.506793     -772.609425       52.249789     1629.538781     2076.761965      630.283275    -1515.794293    -2731.640487    -2523.900956    -1517.731282     -577.290148     -436.605876    -2023.779564    -4788.919677     6077.449549   106489.709144   557518.639276  2060661.796696  6168024.473870 15761688.535255 35330255.362543 70599259.584711 *************** *************** *************** *************** *************** *************** *************** *************** *************** *************** *************** *************** *************** 90948126.600218 47554534.541566 22278031.607660  9228118.534717  3309396.751146   989455.702380   226975.876849    29888.154201    -3210.781412    -2971.426602     -578.059463      288.663206      454.018589      407.161945      121.502712     -418.536048     -698.671086       65.170775     1283.576222      372.580096    -2994.999853    -2729.585273     5022.460694     8714.361098    -3878.599258   -15006.350797     1219.064428    21578.126898     3948.936293   -24113.709482    -7000.105495    24275.898052     9293.290654   -18962.522815    -7640.674434    11208.358274     2544.721044    -6436.997124     -354.162590     2176.988775    -1010.880832     -933.637680        1.559319