<?xml version="1.0"?>
<VTKFile type="StructuredGrid">
<StructuredGrid WholeExtent="     0    99     0    99     0     0">
<Piece Extent="     0    99     0    99     0     0">
<Points>
<DataArray type="Float32" NumberOfComponents="3"/>
      -0.002500       -0.002500        0.000000       -0.002449       -0.002500        0.000000       -0.002399       -0.002500        0.000000       -0.002348       -0.002500        0.000000       -0.002298       -0.002500        0.000000       -0.002247       -0.002500        0.000000       -0.002197       -0.002500        0.000000       -0.002146       -0.002500        0.000000       -0.002096       -0.002500        0.000000       -0.002045       -0.002500        0.000000       -0.001995       -0.002500        0.000000       -0.001944       -0.002500        0.000000       -0.001894       -0.002500        0.000000       -0.001843       -0.002500        0.000000       -0.001793       -0.002500        0.000000       -0.001742       -0.002500        0.000000       -0.001692       -0.002500        0.000000       -0.001641       -0.002500        0.000000       -0.001591       -0.002500        0.000000       -0.001540       -0.002500        0.000000       -0.001490       -0.002500        0.000000       -0.001439       -0.002500        0.000000       -0.001389       -0.002500        0.000000       -0.001338       -0.002500        0.000000       -0.001288       -0.002500        0.000000       -0.001237       -0.002500        0.000000       -0.001187       -0.002500        0.000000       -0.001136       -0.002500        0.000000       -0.001086       -0.002500        0.000000       -0.001035       -0.002500        0.000000       -0.000985       -0.002500        0.000000       -0.000934       -0.002500        0.000000       -0.000884       -0.002500        0.000000       -0.000833       -0.002500        0.000000       -0.000783       -0.002500        0.000000       -0.000732       -0.002500        0.000000       -0.000682       -0.002500        0.000000       -0.000631       -0.002500        0.000000       -0.000581       -0.002500        0.000000       -0.000530       -0.002500        0.000000       -0.000480       -0.002500        0.000000       -0.000429       -0.002500        0.000000       -0.000379       -0.002500        0.000000       -0.000328       -0.002500        0.000000       -0.000278       -0.002500        0.000000       -0.000227       -0.002500        0.000000       -0.000177       -0.002500        0.000000       -0.000126       -0.002500        0.000000       -0.000076       -0.002500        0.000000       -0.000025       -0.002500        0.000000        0.000025       -0.002500        0.000000        0.000076       -0.002500        0.000000        0.000126       -0.002500        0.000000        0.000177       -0.002500        0.000000        0.000227       -0.002500        0.000000        0.000278       -0.002500        0.000000        0.000328       -0.002500        0.000000        0.000379       -0.002500        0.000000        0.000429       -0.002500        0.000000        0.000480       -0.002500        0.000000        0.000530       -0.002500        0.000000        0.000581       -0.002500        0.000000        0.000631       -0.002500        0.000000        0.000682       -0.002500        0.000000        0.000732       -0.002500        0.000000        0.000783       -0.002500        0.000000        0.000833       -0.002500        0.000000        0.000884       -0.002500        0.000000        0.000934       -0.002500        0.000000        0.000985       -0.002500        0.000000        0.001035       -0.002500        0.000000        0.001086       -0.002500        0.000000        0.001136       -0.002500        0.000000        0.001187       -0.002500        0.000000        0.001237       -0.002500        0.000000        0.001288       -0.002500        0.000000        0.001338       -0.002500        0.000000        0.001389       -0.002500        0.000000        0.001439       -0.002500        0.000000        0.001490       -0.002500        0.000000        0.001540       -0.002500        0.000000        0.001591       -0.002500        0.000000        0.001641       -0.002500        0.000000        0.001692       -0.002500        0.000000        0.001742       -0.002500        0.000000        0.001793       -0.002500        0.000000        0.001843       -0.002500        0.000000        0.001894       -0.002500        0.000000        0.001944       -0.002500        0.000000        0.001995       -0.002500        0.000000        0.002045       -0.002500        0.000000        0.002096       -0.002500        0.000000        0.002146       -0.002500        0.000000        0.002197       -0.002500        0.000000        0.002247       -0.002500        0.000000        0.002298       -0.002500        0.000000        0.002348       -0.002500        0.000000        0.002399       -0.002500        0.000000        0.002449       -0.002500        0.000000        0.002500       -0.002500        0.000000
      -0.002500       -0.002449        0.000000       -0.002449       -0.002449        0.000000       -0.002399       -0.002449        0.000000       -0.002348       -0.002449        0.000000       -0.002298       -0.002449        0.000000       -0.002247       -0.002449        0.000000       -0.002197       -0.002449        0.000000       -0.002146       -0.002449        0.000000       -0.002096       -0.002449        0.000000       -0.002045       -0.002449        0.000000       -0.001995       -0.002449        0.000000       -0.001944       -0.002449        0.000000       -0.001894       -0.002449        0.000000       -0.001843       -0.002449        0.000000       -0.001793       -0.002449        0.000000       -0.001742       -0.002449        0.000000       -0.001692       -0.002449        0.000000       -0.001641       -0.002449        0.000000       -0.001591       -0.002449        0.000000       -0.001540       -0.002449        0.000000       -0.001490       -0.002449        0.000000       -0.001439       -0.002449        0.000000       -0.001389       -0.002449        0.000000       -0.001338       -0.002449        0.000000       -0.001288       -0.002449        0.000000       -0.001237       -0.002449        0.000000       -0.001187       -0.002449        0.000000       -0.001136       -0.002449        0.000000       -0.001086       -0.002449        0.000000       -0.001035       -0.002449        0.000000       -0.000985       -0.002449        0.000000       -0.000934       -0.002449        0.000000       -0.000884       -0.002449        0.000000       -0.000833       -0.002449        0.000000       -0.000783       -0.002449        0.000000       -0.000732       -0.002449        0.000000       -0.000682       -0.002449        0.000000       -0.000631       -0.002449        0.000000       -0.000581       -0.002449        0.000000       -0.000530       -0.002449        0.000000       -0.000480       -0.002449        0.000000       -0.000429       -0.002449        0.000000       -0.000379       -0.002449        0.000000       -0.000328       -0.002449        0.000000       -0.000278       -0.002449        0.000000       -0.000227       -0.002449        0.000000       -0.000177       -0.002449        0.000000       -0.000126       -0.002449        0.000000       -0.000076       -0.002449        0.000000       -0.000025       -0.002449        0.000000        0.000025       -0.002449        0.000000        0.000076       -0.002449        0.000000        0.000126       -0.002449        0.000000        0.000177       -0.002449        0.000000        0.000227       -0.002449        0.000000        0.000278       -0.002449        0.000000        0.000328       -0.002449        0.000000        0.000379       -0.002449        0.000000        0.000429       -0.002449        0.000000        0.000480       -0.002449        0.000000        0.000530       -0.002449        0.000000        0.000581       -0.002449        0.000000        0.000631       -0.002449        0.000000        0.000682       -0.002449        0.000000        0.000732       -0.002449        0.000000        0.000783       -0.002449        0.000000        0.000833       -0.002449        0.000000        0.000884       -0.002449        0.000000        0.000934       -0.002449        0.000000        0.000985       -0.002449        0.000000        0.001035       -0.002449        0.000000        0.001086       -0.002449        0.000000        0.001136       -0.002449        0.000000        0.001187       -0.002449        0.000000        0.001237       -0.002449        0.000000        0.001288       -0.002449        0.000000        0.001338       -0.002449        0.000000        0.001389       -0.002449        0.000000        0.001439       -0.002449        0.000000        0.001490       -0.002449        0.000000        0.001540       -0.002449        0.000000        0.001591       -0.002449        0.000000        0.001641       -0.002449        0.000000        0.001692       -0.002449        0.000000        0.001742       -0.002449        0.000000        0.001793       -0.002449        0.000000        0.001843       -0.002449        0.000000        0.001894       -0.002449        0.000000        0.001944       -0.002449        0.000000        0.001995       -0.002449        0.000000        0.002045       -0.002449        0.000000        0.002096       -0.002449        0.000000        0.002146       -0.002449        0.000000        0.002197       -0.002449        0.000000        0.002247       -0.002449        0.000000        0.002298       -0.002449        0.000000        0.002348       -0.002449        0.000000        0.002399       -0.002449        0.000000        0.002449       -0.002449        0.000000        0.002500       -0.002449        0.000000
[...]
<CellData Scalars="Temprature, U, V">
<DataArray type="Float32" Name="Temp, K"/>
     292.939319      293.764199      293.551713      291.581430      288.275839      284.157238      279.036988      272.865399      266.172782      259.359305      252.455033      245.580848      239.020902      232.924260      227.273295      222.049140      217.269656      212.937606      209.025629      205.482336      202.248971      199.283419      196.588947      194.169022      192.012580      190.085176      188.331678      186.727906      185.217016      183.312963      179.091581      164.559967      115.448648      -41.961642     -490.045347    -1649.441581    -4388.988726   -10313.096092   -22099.661935   -43749.981042   -80467.329663  -138053.849294  -221479.193352  -332914.372650  -469514.650845  -622007.775179  -774727.943551  -907780.780449 -1001097.463727 -1039380.957635 -1016007.261869  -934998.885130  -809897.517183  -660000.577576  -505697.899254  -363988.820381  -245864.787724  -155652.043258   -92161.267885   -50919.442171   -26167.409733   -12435.363544    -5410.101306    -2099.942528     -671.145562     -108.038682       93.525435      158.331240      177.326395      182.924985      185.016229      186.616716      188.194050      189.929424      191.889328      194.143477      196.590379      198.801243      200.856453      204.585540      211.266993      215.866966      211.912343      210.701418      232.841077      256.481016      231.933634      199.608472      257.541035      330.185411      255.060186      171.187111      302.320622      407.951722      235.540766      154.495549      390.319691      423.222705     -101.555603
     292.312670      294.063871      295.454373      293.988017      289.146888      282.182189      273.462200      262.526769      249.847246      236.481340      222.862219      209.091468      195.590999      182.830980      170.954305      159.925020      149.738249      140.410983      131.934669      124.261912      117.296289      110.911132      105.033646       99.661892       94.802775       90.461361       86.530768       82.979531       79.696113       75.909551       69.071371       45.941862      -32.301068     -289.561999    -1033.120029    -2989.797684    -7665.984837   -17877.492981   -38355.798436   -76211.476794  -140766.768096  -242456.664535  -390341.530737  -588493.141398  -832048.003370 -1104534.088371 -1377947.760758 -1616567.687909 -1784290.244774 -1853407.828869 -1811988.802121 -1667159.642694 -1443247.951580 -1174990.894222  -899044.178735  -645956.162356  -435329.153699  -274819.220605  -162193.826825   -89302.960194   -45741.763670   -21707.538505    -9493.252306    -3788.032599    -1351.553087     -403.092955      -69.616299       35.587884       66.015447       75.300861       79.205432       82.650028       86.167978       90.075030       94.475482       99.342602      104.284396      109.047700      115.209164      125.394999      136.356989      137.653105      133.495231      154.688028      201.016229      199.271714      137.364239      165.369642      311.990192      303.935201      110.519096      172.197241      466.278229      364.267425       31.667258      253.703785      623.938388      207.760563     -461.280622
     291.635987      293.004828      295.746609      297.842685      296.489964      291.645008      284.907771      276.367653      265.375451      252.590732      239.183663      225.513826      211.658155      198.084227      185.280780      173.386882      162.357584      152.158791      142.784869      134.259082      126.595170      119.714752      113.435052      107.617507      102.221280       97.306683       92.867211       88.910802       85.310014       82.078387       79.894525       80.634864       93.553245      144.482805      310.680437      766.284685     1900.520963     4452.792326     9697.775405    19596.192893    36770.635485    64239.550595   104684.419523   159463.517131   227398.016893   303982.489980   381294.005674   449105.989892   496957.349076   516858.240642   505231.613246   464164.793875   400674.806388   324812.359716   247106.176510   176230.574449   117703.968647    73508.092647    42836.121422    23241.589235    11718.990579     5480.386947     2380.353106      970.092810      387.336127      171.699257      101.163529       82.479447       79.914998       81.924090       84.936066       88.507796       92.443568       96.816526      101.617157      106.582399      111.641361      118.104917      127.842350      137.837598      139.474442      136.954534      158.023666      203.270757      202.905020      138.415362      159.566777      318.818445      330.369270      104.110868      127.756201      489.975097      443.862567       -7.355334      146.616897      696.538720      405.489535     -400.700053     -564.029479
     291.219354      292.045297      294.263116      298.162972      300.916606      299.539582      294.703153      288.257025      279.868706      268.766372      255.860439      242.396031      228.643952      214.677736      201.008366      188.134419      176.207816      165.188887      154.986576      145.528077      136.856526      129.100280      122.258283      116.124011      110.458599      105.135401      100.191652       95.687746       91.533405       88.217158       87.295110       99.861439      162.774367      398.979328     1137.796866     3178.383317     8239.918489    19623.162401    42998.059119    87049.121788   163403.612040   285321.008926   464654.489553   707251.435441  1007849.141409  1346425.162101  1688069.973240  1987717.705773  2199425.898395  2287682.817691  2237003.219506  2056273.931253  1776313.897931  1441307.419780  1097672.909154   783860.809557   524204.294444   327766.435988   191212.715897   103825.424623    52310.594769    24364.678481    10451.011937     4117.159839     1497.929117      521.770137      199.955903      108.959255       89.077277       87.984987       91.167974       95.077032       99.506374      104.294275      109.321469      114.638356      121.275348      130.471301      139.570204      141.795253      141.203142      161.869660      204.897469      206.186045      141.913063      155.182742      321.652054      358.131778      107.977261       76.498507      496.035664      545.474671      -18.023673       -1.790737      730.708645      639.598547     -336.106206     -685.974124     -394.981633
     290.892134      291.699429      292.951634      296.182375      301.376965      304.660296      303.128694      298.360714      292.265255      283.981272      272.722267      259.686299      246.142770      232.275915      218.180194      204.391633      191.403412      179.416939      168.441175      158.304622      148.776749      139.855848      131.805708      124.803270      118.712651      113.203301      108.061520      103.214711       98.760965       94.761821       90.745400       85.147482       69.637011       18.773522     -146.331215     -616.515995    -1825.186804    -4624.918028   -10518.878366   -21863.759811   -41879.677486   -74333.409625  -122681.641525  -188798.618800  -271468.219975  -365289.605710  -460543.395612  -544506.875834  -604081.523229  -629116.511700  -615097.352180  -564558.117586  -486276.375280  -392843.268400  -297407.441605  -210754.642898  -139601.621036   -86265.611532   -49600.870283   -26448.098007   -13019.133958    -5871.654744    -2392.514614     -850.108024     -231.931471       -9.967989       61.745463       82.935860       90.091139       94.190480       98.214717      102.544051      107.324738      112.424722      117.930338      124.618742      133.251983      141.613179      144.639959      146.131335      166.199193      206.071098      208.954902      147.660523      153.320741      320.747549      384.185309      122.983574       24.855473      479.287458      658.769607       14.775842     -178.915634      698.527187      910.169816     -207.853245     -850.251122     -452.900110     -247.582692
     290.432285      291.509530      292.684146      294.353288      298.850550      305.432028      309.045637      307.265449      302.670737      296.966537      288.723655      277.274764      264.103759      250.448966      236.436044      222.208108      208.280834      195.101614      182.978541      172.074416      162.163991      152.745252      143.620663      135.127189      127.695152      121.388165      115.923879      110.935270      106.439050      102.189986       97.486800       84.304890       30.945473     -174.955794     -857.717741    -2835.064533    -7928.959216   -19738.708952   -44591.649621   -92368.609209  -176562.553294  -312858.726619  -515656.636750  -792641.038331 -1138619.367187 -1530935.113081 -1929039.504757 -2279929.620568 -2529115.252611 -2634180.651291 -2576398.623457 -2366078.920851 -2039647.418080 -1649451.754005 -1250311.376716  -887351.871046  -588743.017892  -364482.665090  -210023.992368  -112290.115160   -55471.180444   -25172.118146   -10401.750706    -3853.015764    -1232.787652     -296.717575       -3.354727       76.371049       95.772258      101.728756      105.973816      110.641259      115.712054      121.326185      127.993603      136.144392      144.025340      148.051295      151.652596      170.978910      207.030587      211.222434      155.311674      154.767258      316.975749      405.742447      148.117782      -19.925571      438.622498      769.176516      100.052946     -361.162845      577.591365     1191.560231       25.116370    -1032.808676     -605.992492     -128.401990     -299.939553
     289.887017      290.970521      292.778554      294.111466      296.280578      302.373880      310.346996      314.038947      311.981215      307.695904      302.391479      294.119218      282.466882      269.154608      255.336857      241.146589      226.819318      212.765667      199.282067      186.825928      175.909801      166.405344      157.493858      148.561875      139.809003      131.873338      125.099119      119.375591      114.329201      109.615494      105.354859      102.508441      107.710734      143.910284      285.726333      726.223333     1915.989897     4770.961309    10944.433623    23079.687951    44862.113598    80678.428754   134666.815117   209215.791830   303187.918582   410554.114485   520176.219219   617281.525159   686541.203438   715961.761923   700182.138230   642087.159971   551928.393774   444430.519161   334930.211070   235933.727028   155102.475057    94957.769402    53999.469783    28434.131814    13815.409518     6173.243288     2537.048405      973.072237      372.262163      170.475893      113.922704      103.493964      105.064130      109.304476      114.093781      119.273903      124.936051      131.560243      139.375665      147.058203      152.199489      157.765823      176.196698      208.041454      213.149442      164.444364      159.869236      311.616961      420.813613      180.657238      -51.307975      377.793070      860.799657      237.025051     -517.371373      359.378522     1438.610108      387.978503    -1183.826442     -884.364313      -28.910780     -175.551368     -424.123999
     289.452316      290.228540      292.261065      294.662153      295.913201      298.814462      306.865277      316.109223      319.613232      317.334251      313.502972      308.566267      300.198513      288.357077      274.892327      260.821442      246.405328      232.070725      218.007239      204.128399      190.977741      179.653341      170.462222      162.404111      154.277456      145.834081      137.643518      130.366878      123.984126      118.261996      112.959219      112.668977      141.609566      294.259297      865.236122     2633.485515     7398.138600    18818.910839    43483.887532    91885.007296   178622.099041   320989.851252   535261.963633   830719.686246  1202717.088383  1627339.395366  2060625.607239  2444383.316446  2718290.773589  2835068.541592  2773587.447700  2544994.920186  2189489.099080  1764945.946173  1331816.536141   939560.968910   618646.147588   379362.685873   216049.854873   113871.350114    55294.418970    24599.021931     9961.269676     3653.393727     1224.025612      403.145320      168.703025      117.294094      112.966060      117.625348      123.266070      129.187658      135.884814      143.532155      151.212846      157.392659      164.528454      181.820147      209.317101      214.975596      174.634166      168.525043      306.076411      428.544804      216.809269      -64.856832      304.826653      920.174478      413.826831     -615.803390       55.882848     1595.954277      878.112468    -1230.920730    -1299.598604       -5.899902       53.230517     -483.218124     -404.376069
     289.156268      289.764899      291.217482      294.361384      297.073241      298.043666      302.094039      312.421996      322.675134      325.762635      323.409102      320.158157      315.511935      306.997867      295.025412      281.399273      266.914442      252.148403      237.950461      224.214282      210.072138      195.831489      183.271342      173.589993      166.042073      158.936341      151.344337      143.488678      136.060099      129.587394      124.076450      118.945301      109.409210       76.409153      -45.837332     -438.801615    -1540.638614    -4270.855438   -10329.733237   -22489.750483   -44690.881898   -81706.043946  -138148.682117  -216832.830466  -316806.914662  -431784.195364  -549826.460122  -654895.507795  -730214.471284  -762555.015500  -745949.175934  -683472.446882  -586317.050660  -470581.948918  -352996.758979  -247121.552996  -161146.641795   -97631.711996   -54769.828747   -28317.281407   -13401.718782    -5740.174576    -2174.018366     -681.969812     -127.544654       52.766709      103.867567      117.570434      123.349687      128.459443      134.318370      141.102874      148.772942      156.565774      163.559273      171.720068      187.617434      210.916007      216.949409      185.536522      180.291572      301.620201      429.267487      252.590303      -59.052989      230.241641      939.559088      609.429632     -632.537055     -299.124572     1612.828922     1455.921023    -1094.613119    -1822.198386     -144.980076      389.286129     -459.998773     -561.303829     -255.361812
     288.813667      289.640951      290.548346      292.953818      297.303599      299.875865      300.516182      306.307233      319.102048      329.980920      332.514125      330.313029      327.727134      323.242045      314.548288      302.577879      288.824129      273.664316      258.220808      244.236214      231.445368      217.728765      202.460334      187.813734      176.245720      167.949167      161.293289      154.695454      147.877157      141.414343      136.226636      130.529572      107.983545       -4.610051     -455.429634    -1936.886349    -6109.780115   -16453.734480   -39383.597613   -85317.263407  -169014.437867  -308276.303983  -520239.357090  -815242.344775 -1189547.203243 -1619558.849255 -2060717.839510 -2453299.633815 -2734893.914948 -2856254.962261 -2795114.168595 -2562722.824825 -2200543.406582 -1768378.841791 -1328555.477712  -931779.481271  -608890.566495  -369795.952642  -208038.681364  -107938.414734   -51336.184733   -22183.657140    -8583.560422    -2887.036752     -773.899424      -94.795400       87.724214      127.230731      135.438059      140.410180      146.739296      154.247748      162.095642      169.654639      178.436033      192.985206      212.736711      219.364944      197.013591      194.580034      299.195114      424.272828      284.654958      -35.323510      164.661060      918.653178      798.331764     -558.330928     -655.780247     1459.521459     2046.081069     -713.976443    -2368.860162     -533.208693      779.098497     -264.319434     -804.610465     -262.548956     -198.014597
     288.305032      289.399821      290.612969      291.806334      295.597918      301.047566      302.911674      303.435328      311.663113      326.909410      337.960771      339.930886      338.173058      336.285157      331.759060      322.844822      311.131083      297.437032      281.276136      264.445693      250.337924      239.150208      227.304369      212.334520      195.971324      181.788304      171.468945      164.096760      157.913547      151.768902      145.393835      139.007271      135.536114      149.298389      234.257412      549.533339     1494.514711     3934.260777     9507.715741    20940.073408    42174.341936    78069.103315   133424.114208   211310.406807   311031.647671   426448.635348   545574.516715   652103.401722   728842.990022   762143.186866   745780.231373   682824.457483   584713.341181   467926.253486   349554.216729   243373.181695   157598.336891    94663.756384    52563.618124    26866.959349    12579.285577     5371.772584     2096.384180      771.338065      304.167582      166.989837      138.228924      138.619352      144.818837      151.958663      159.428951      167.100563      174.875599      184.032016      197.629299      214.966147      222.797685      209.273303      210.840484      299.323743      415.391374      310.844831        2.638878      116.591807      864.254484      956.503609     -401.457976     -959.490939     1139.444411     2552.010886      -73.803699    -2809.420464    -1218.603051     1099.952570      187.355297    -1066.248121     -433.847740      -12.259489     -330.850871
     287.768465      288.740981      290.693361      291.941356      293.645349      299.323486      305.447720      306.052985      307.008819      318.352803      335.796975      346.565425      348.102040      347.137294      345.945881      341.058395      331.789746      320.738435      307.655218      290.320376      270.936124      255.422941      245.761156      237.463708      225.509085      209.824231      194.060079      181.281527      171.806181      164.159465      156.404413      148.014156      148.183398      208.880051      524.680680     1671.767006     5088.084831    13876.748300    33893.818687    74832.697700   150661.948505   278513.561067   475225.567935   751451.510058  1104524.981258  1512638.559202  1933494.121637  2309710.423040  2580861.044389  2698956.102415  2642045.670867  2420744.750228  2075070.506713  1662852.385868  1244251.772167   867964.915320   563262.838442   339096.847962   188694.654740    96594.779698    45206.413213    19187.694455     7318.243620     2496.025738      785.393289      275.463922      159.702069      148.191478      155.977825      164.748922      172.758098      180.778574      190.232046      203.271698      219.161999      228.534294      222.874569      228.534663      301.980459      404.496512      330.375367       49.994544       91.002859      788.121249     1066.651512     -185.527387    -1164.286286      691.792617     2880.311233      778.492730    -2996.676428    -2170.630323     1177.365516      916.341151    -1197.878873     -843.936676      171.190570     -206.466004     -467.495102