<?xml version="1.0"?>
<VTKFile type="StructuredGrid">
<StructuredGrid WholeExtent="     0    99     0    99     0     0">
<Piece Extent="     0    99     0    99     0     0">
<Points>
<DataArray type="Float32" NumberOfComponents="3"/>
      -0.002500       -0.002500        0.000000       -0.002449       -0.002500        0.000000       -0.002399       -0.002500        0.000000       -0.002348       -0.002500        0.000000       -0.002298       -0.002500        0.000000       -0.002247       -0.002500        0.000000       -0.002197       -0.002500        0.000000       -0.002146       -0.002500        0.000000       -0.002096       -0.002500        0.000000       -0.002045       -0.002500        0.000000       -0.001995       -0.002500        0.000000       -0.001944       -0.002500        0.000000       -0.001894       -0.002500        0.000000       -0.001843       -0.002500        0.000000       -0.001793       -0.002500        0.000000       -0.001742       -0.002500        0.000000       -0.001692       -0.002500        0.000000       -0.001641       -0.002500        0.000000       -0.001591       -0.002500        0.000000       -0.001540       -0.002500        0.000000       -0.001490       -0.002500        0.000000       -0.001439       -0.002500        0.000000       -0.001389       -0.002500        0.000000       -0.001338       -0.002500        0.000000       -0.001288       -0.002500        0.000000       -0.001237       -0.002500        0.000000       -0.001187       -0.002500        0.000000       -0.001136       -0.002500        0.000000       -0.001086       -0.002500        0.000000       -0.001035       -0.002500        0.000000       -0.000985       -0.002500        0.000000       -0.000934       -0.002500        0.000000       -0.000884       -0.002500        0.000000       -0.000833       -0.002500        0.000000       -0.000783       -0.002500        0.000000       -0.000732       -0.002500        0.000000       -0.000682       -0.002500        0.000000       -0.000631       -0.002500        0.000000       -0.000581       -0.002500        0.000000       -0.000530       -0.002500        0.000000       -0.000480       -0.002500        0.000000       -0.000429       -0.002500        0.000000       -0.000379       -0.002500        0.000000       -0.000328       -0.002500        0.000000       -0.000278       -0.002500        0.000000       -0.000227       -0.002500        0.000000       -0.000177       -0.002500        0.000000       -0.000126       -0.002500        0.000000       -0.000076       -0.002500        0.000000       -0.000025       -0.002500        0.000000        0.000025       -0.002500        0.000000        0.000076       -0.002500        0.000000        0.000126       -0.002500        0.000000        0.000177       -0.002500        0.000000        0.000227       -0.002500        0.000000        0.000278       -0.002500        0.000000        0.000328       -0.002500        0.000000        0.000379       -0.002500        0.000000        0.000429       -0.002500        0.000000        0.000480       -0.002500        0.000000        0.000530       -0.002500        0.000000        0.000581       -0.002500        0.000000        0.000631       -0.002500        0.000000        0.000682       -0.002500        0.000000        0.000732       -0.002500        0.000000        0.000783       -0.002500        0.000000        0.000833       -0.002500        0.000000        0.000884       -0.002500        0.000000        0.000934       -0.002500        0.000000        0.000985       -0.002500        0.000000        0.001035       -0.002500        0.000000        0.001086       -0.002500        0.000000        0.001136       -0.002500        0.000000        0.001187       -0.002500        0.000000        0.001237       -0.002500        0.000000        0.001288       -0.002500        0.000000        0.001338       -0.002500        0.000000        0.001389       -0.002500        0.000000        0.001439       -0.002500        0.000000        0.001490       -0.002500        0.000000        0.001540       -0.002500        0.000000        0.001591       -0.002500        0.000000        0.001641       -0.002500        0.000000        0.001692       -0.002500        0.000000        0.001742       -0.002500        0.000000        0.001793       -0.002500        0.000000        0.001843       -0.002500        0.000000        0.001894       -0.002500        0.000000        0.001944       -0.002500        0.000000        0.001995       -0.002500        0.000000        0.002045       -0.002500        0.000000        0.002096       -0.002500        0.000000        0.002146       -0.002500        0.000000        0.002197       -0.002500        0.000000        0.002247       -0.002500        0.000000        0.002298       -0.002500        0.000000        0.002348       -0.002500        0.000000        0.002399       -0.002500        0.000000        0.002449       -0.002500        0.000000        0.002500       -0.002500        0.000000
      -0.002500       -0.002449        0.000000       -0.002449       -0.002449        0.000000       -0.002399       -0.002449        0.000000       -0.002348       -0.002449        0.000000       -0.002298       -0.002449        0.000000       -0.002247       -0.002449        0.000000       -0.002197       -0.002449        0.000000       -0.002146       -0.002449        0.000000       -0.002096       -0.002449        0.000000       -0.002045       -0.002449        0.000000       -0.001995       -0.002449        0.000000       -0.001944       -0.002449        0.000000       -0.001894       -0.002449        0.000000       -0.001843       -0.002449        0.000000       -0.001793       -0.002449        0.000000       -0.001742       -0.002449        0.000000       -0.001692       -0.002449        0.000000       -0.001641       -0.002449        0.000000       -0.001591       -0.002449        0.000000       -0.001540       -0.002449        0.000000       -0.001490       -0.002449        0.000000       -0.001439       -0.002449        0.000000       -0.001389       -0.002449        0.000000       -0.001338       -0.002449        0.000000       -0.001288       -0.002449        0.000000       -0.001237       -0.002449        0.000000       -0.001187       -0.002449        0.000000       -0.001136       -0.002449        0.000000       -0.001086       -0.002449        0.000000       -0.001035       -0.002449        0.000000       -0.000985       -0.002449        0.000000       -0.000934       -0.002449        0.000000       -0.000884       -0.002449        0.000000       -0.000833       -0.002449        0.000000       -0.000783       -0.002449        0.000000       -0.000732       -0.002449        0.000000       -0.000682       -0.002449        0.000000       -0.000631       -0.002449        0.000000       -0.000581       -0.002449        0.000000       -0.000530       -0.002449        0.000000       -0.000480       -0.002449        0.000000       -0.000429       -0.002449        0.000000       -0.000379       -0.002449        0.000000       -0.000328       -0.002449        0.000000       -0.000278       -0.002449        0.000000       -0.000227       -0.002449        0.000000       -0.000177       -0.002449        0.000000       -0.000126       -0.002449        0.000000       -0.000076       -0.002449        0.000000       -0.000025       -0.002449        0.000000        0.000025       -0.002449        0.000000        0.000076       -0.002449        0.000000        0.000126       -0.002449        0.000000        0.000177       -0.002449        0.000000        0.000227       -0.002449        0.000000        0.000278       -0.002449        0.000000        0.000328       -0.002449        0.000000        0.000379       -0.002449        0.000000        0.000429       -0.002449        0.000000        0.000480       -0.002449        0.000000        0.000530       -0.002449        0.000000        0.000581       -0.002449        0.000000        0.000631       -0.002449        0.000000        0.000682       -0.002449        0.000000        0.000732       -0.002449        0.000000        0.000783       -0.002449        0.000000        0.000833       -0.002449        0.000000        0.000884       -0.002449        0.000000        0.000934       -0.002449        0.000000        0.000985       -0.002449        0.000000        0.001035       -0.002449        0.000000        0.001086       -0.002449        0.000000        0.001136       -0.002449        0.000000        0.001187       -0.002449        0.000000        0.001237       -0.002449        0.000000        0.001288       -0.002449        0.000000        0.001338       -0.002449        0.000000        0.001389       -0.002449        0.000000        0.001439       -0.002449        0.000000        0.001490       -0.002449        0.000000        0.001540       -0.002449        0.000000        0.001591       -0.002449        0.000000        0.001641       -0.002449        0.000000        0.001692       -0.002449        0.000000        0.001742       -0.002449        0.000000        0.001793       -0.002449        0.000000        0.001843       -0.002449        0.000000        0.001894       -0.002449        0.000000        0.001944       -0.002449        0.000000        0.001995       -0.002449        0.000000        0.002045       -0.002449        0.000000        0.002096       -0.002449        0.000000        0.002146       -0.002449        0.000000        0.002197       -0.002449        0.000000        0.002247       -0.002449        0.000000        0.002298       -0.002449        0.000000        0.002348       -0.002449        0.000000        0.002399       -0.002449        0.000000        0.002449       -0.002449        0.000000        0.002500       -0.002449        0.000000
[...]
<CellData Scalars="Temprature, U, V">
<DataArray type="Float32" Name="Temp, K"/>
     292.619664      294.512469      299.473660      301.880266      241.653740       62.729754      207.462259     1183.311700      265.370153    -4886.953211     -844.059308    21098.675161    10365.608316   -77017.970023   -75575.796369   310797.330254   407068.806243 -1527715.795596 -1759831.312634  8094260.916660  8118831.739374 *************** *************** *************** *************** *************** *************** *************** *************** *************** *************** *************** *************** *************** *************** *************** *************** *************** *************** *************** *************** *************** *************** *************** *************** *************** *************** *************** *************** *************** *************** *************** *************** *************** *************** *************** *************** *************** *************** *************** *************** *************** *************** *************** *************** *************** *************** *************** *************** *************** *************** *************** *************** *************** *************** *************** *************** *************** *************** *************** *************** *************** *************** 37491804.824434 64833482.471048 *************** ***************  4687898.956133  5757224.125145 -1347578.649058 -1195471.923767   297548.889696   196146.573827   -45805.145223   -26445.519131     4481.011731     3661.169987      333.674154     -498.766333
     291.088284      292.377126      296.870436      316.426895      327.906706       99.357044     -381.238151      611.352205     3000.856838    -2495.604578   -13025.038851     8820.667670    51547.237564    -9644.472256  -211217.335539   -67005.398047   998656.651720   363317.760908 -5013040.983416  -667606.118008 24535624.369896  2242093.544937 *************** *************** *************** *************** *************** *************** *************** *************** *************** *************** *************** *************** *************** *************** *************** *************** *************** *************** *************** *************** *************** *************** *************** *************** *************** *************** *************** *************** *************** *************** *************** *************** *************** *************** *************** *************** *************** *************** *************** *************** *************** *************** *************** *************** *************** *************** *************** 66134105.620942 *************** *************** *************** *************** *************** *************** *************** *************** 31109531.530432 *************** 49432615.949837 *************** *************** *************** 17694227.172797 *************** -4104368.506750 16558496.904836   185686.904128 -4041475.560287   211414.426995   764175.446107   -73209.767451  -111383.528451    10704.203174    13781.278908      382.405527    -1409.161295     -652.133867
     290.546387      292.688878      293.114487      281.183785      317.884460      530.338948      203.984341    -1562.546615      155.732483     8251.381019     -469.114752   -30923.837911    -7944.746729   107930.219462   116997.873551  -454246.518886  -761733.593487  2370716.570924  3422879.111919 *************** *************** 55810505.679824 64601498.489230 *************** *************** *************** *************** *************** *************** *************** *************** *************** *************** *************** *************** *************** *************** *************** *************** *************** *************** *************** *************** *************** *************** *************** *************** *************** *************** *************** *************** *************** *************** *************** *************** *************** *************** *************** *************** *************** *************** *************** *************** *************** *************** *************** *************** *************** *************** *************** *************** *************** *************** *************** *************** *************** *************** *************** *************** *************** *************** 24103404.083935 *************** *************** ***************  8164297.022603 35695385.042432 -5062740.735338 -9630937.534265  2106183.728437  1974617.968826  -590318.458142  -297768.237125   110354.795749    34283.329507   -12368.063753    -3335.922501      378.184158     -200.565231
     289.450024      289.686850      297.488268      311.196848      229.026600      188.257587     1027.465682      951.171453    -4199.075758    -2588.507356    17562.683674    11099.787086   -51417.402549   -83296.886837   145806.268009   594603.097565  -694475.428057 -3196710.255439  4283491.200544 14043399.694838 *************** *************** 85705860.090728 *************** *************** *************** *************** *************** *************** *************** *************** *************** *************** *************** *************** *************** *************** *************** *************** *************** *************** *************** *************** *************** *************** *************** *************** *************** *************** *************** *************** *************** *************** *************** *************** *************** *************** *************** *************** *************** *************** *************** *************** *************** *************** *************** *************** *************** *************** *************** *************** *************** *************** *************** *************** *************** *************** *************** *************** *************** *************** *************** *************** *************** 41090440.416339 65777669.633775 *************** ***************  7765937.849681  4181110.449952 -2287408.698790  -597495.257339   482009.073867    43938.196182   -68152.613936      620.871738     5828.539817     -830.210583     -752.105532
     289.567715      290.598367      281.504758      300.518230      405.908777      128.536623     -393.481931     2030.399752     3382.478029    -8754.531627    -9982.814965    25932.994395    42788.521570   -26840.517531  -303112.696469   -58671.179176  1952768.723863  -137994.505351 -9819810.499590  3822569.100570 41278390.677230 *************** *************** 49685025.526616 *************** *************** *************** *************** *************** *************** *************** *************** *************** *************** *************** *************** *************** *************** *************** *************** *************** *************** *************** *************** *************** *************** *************** *************** *************** *************** *************** *************** *************** *************** *************** *************** *************** *************** *************** *************** *************** *************** *************** *************** *************** *************** *************** *************** *************** *************** *************** *************** *************** *************** *************** *************** *************** *************** *************** *************** *************** *************** *************** *************** *************** *************** *************** 20916212.460679  7442979.833187 -6649633.519737  -855577.177061  1550985.276897   -62742.435568  -245966.725868    43606.365314    23468.647295    -8100.285509    -1568.745958      296.010005
     287.405893      292.075289      301.700524      245.624605      265.995365      742.396754        9.192430    -2098.104278     3793.002917     8514.801678   -13925.743177   -20236.672073     6690.733821    94972.667400   216071.396914  -782638.018107 -1251247.536132  5000980.083395  3933062.507287 *************** -8920142.329070 93654446.809293 27524252.147551 *************** *************** *************** *************** *************** *************** *************** *************** *************** *************** *************** *************** *************** *************** *************** *************** *************** *************** *************** *************** *************** *************** *************** *************** *************** *************** *************** *************** *************** *************** *************** *************** *************** *************** *************** *************** *************** *************** *************** *************** *************** *************** *************** *************** *************** *************** *************** *************** *************** *************** *************** *************** *************** *************** *************** *************** *************** *************** *************** *************** *************** *************** *************** 46510293.148319 11193895.928335 ***************  -557784.234158  4129701.700977  -591146.264925  -715301.208335   232877.017503    67085.616486   -43966.100814     -588.277026     4055.798890     -891.950451
     287.692242      280.785770      297.498088      356.807751      125.373612       79.425271     1709.472908     -130.169024    -5809.786773     7056.881805    13464.054937   -13573.419506    -7363.122997  -122385.116273    94269.545040  1142134.130273 -1484715.990052 -5296775.416488 10139151.603208 17949153.097529 *************** *************** *************** *************** *************** *************** *************** *************** -3842846.670174 *************** *************** *************** *************** *************** *************** *************** *************** *************** *************** *************** *************** *************** *************** *************** *************** *************** *************** *************** *************** *************** *************** *************** *************** *************** *************** *************** *************** *************** *************** *************** *************** *************** *************** *************** *************** *************** *************** *************** *************** *************** *************** *************** *************** *************** *************** *************** *************** *************** *************** *************** *************** *************** *************** *************** *************** 89636508.568864 13984071.959557 ***************  1350082.356446  9551350.501786 -2203212.047757 -1799006.912041   839035.856337   157554.319947  -174670.205579    14119.290669    19163.337770    -5875.993592    -1170.177513
     289.795794      294.342883      251.727505      306.015818      561.981761     -242.771636     -463.474459     4127.592611    -1100.810161   -11270.707373    15821.851106    -1893.640297     5348.226724   136634.732180  -547627.576334  -291697.380933  3719829.549763 -1632378.324482 *************** 15263453.666022 52782426.606345 *************** *************** *************** *************** *************** *************** *************** *************** *************** *************** *************** *************** *************** *************** *************** *************** *************** *************** *************** *************** *************** *************** *************** *************** *************** *************** *************** *************** *************** *************** *************** *************** *************** *************** *************** *************** *************** *************** *************** *************** *************** *************** *************** *************** *************** *************** *************** *************** *************** *************** *************** *************** *************** *************** *************** *************** *************** *************** *************** *************** *************** *************** *************** *************** 13601860.658285 ***************  6461228.627472 19699989.835327 -6039976.420726 -4056137.546698  2422229.636430   329704.525509  -567483.794072    80398.582772    70841.216838   -29305.797745    -2403.386050     3020.227680
     281.023853      297.528856      324.142895      139.486535      333.786500     1179.680580    -1387.588105    -1299.179696     9654.908149    -7941.806310   -12485.531732    47958.657024  -108290.488837    50735.258516   729087.538125 -1574635.190210 -2043852.643353  9456518.859435  1467107.136758 *************** 12224355.122306 *************** *************** *************** *************** ***************  -657372.513025 *************** *************** *************** *************** *************** *************** *************** *************** *************** *************** *************** *************** *************** *************** *************** *************** *************** *************** *************** *************** *************** *************** *************** *************** *************** *************** *************** *************** *************** *************** *************** *************** *************** *************** *************** *************** *************** *************** *************** *************** *************** *************** *************** *************** *************** *************** *************** *************** *************** *************** *************** *************** *************** *************** *************** *************** ***************  7724886.631999 *************** 16553561.909738 36830096.963265 *************** -8372992.411068  5947336.615351   664692.370571 -1583200.116237   284892.132642   228214.979355  -113360.227307    -4895.973811    16521.922148    -3524.333428
     285.184998      256.271489      329.441905      423.538011     -249.032449      545.908784     2712.643633    -5109.377978     -302.816577    21822.182472   -40607.383747    12694.657039   165949.704594  -490166.014369    64896.935481  2506285.931950 -3485417.300640 -7358642.106874 19810482.177348 13842862.276993 *************** *************** *************** 19880496.505951 *************** *************** *************** *************** *************** *************** *************** *************** *************** *************** *************** *************** *************** *************** *************** *************** *************** *************** *************** *************** *************** *************** *************** *************** *************** *************** *************** *************** *************** *************** *************** *************** *************** *************** *************** *************** *************** *************** *************** *************** *************** *************** *************** *************** *************** *************** *************** *************** *************** *************** *************** *************** *************** *************** *************** *************** *************** *************** *************** -5077038.129334 *************** 32856891.761160 63095585.997555 *************** *************** 12782806.981304  1377964.269242 -3887662.972131   773269.907517   660238.075017  -359742.181883   -15837.451106    65487.969902   -17274.243345    -4468.432462
     299.506298      296.981875      166.133647      468.545400      669.574362    -1492.982681     1867.446947     5778.526269   -17262.298329    12409.839160    49160.180790  -160106.813025   118400.507444   546934.171378 -1528504.633362  -238875.301762  6840125.749252 -6058200.330758 *************** 34510695.110648 45211761.082130 *************** *************** *************** *************** *************** *************** *************** *************** *************** *************** *************** *************** *************** *************** *************** *************** *************** *************** *************** *************** *************** *************** *************** *************** *************** *************** *************** *************** *************** *************** *************** *************** *************** *************** *************** *************** *************** *************** *************** *************** *************** *************** *************** *************** *************** *************** *************** *************** *************** *************** *************** *************** *************** *************** *************** *************** *************** *************** *************** *************** *************** *************** *************** 55186714.246013 99796921.514628 *************** *************** 24449419.106320  2976743.824697 -8518645.431375  1704605.252366  1727995.161082  -965564.442678   -71712.887377   218892.012644   -59103.859019   -18065.261136    12505.525836
     269.548161      343.360243      313.943013     -134.775845     1058.974289     1025.575545    -5224.552123     8073.399646    10210.756656   -55022.300885    68139.536625   114211.921260  -519333.376179   401304.359756  1607414.361967 -3848849.528710 -1675964.762513 15750607.465045 -7713407.397824 *************** 49142612.282683 *************** *************** *************** *************** *************** *************** *************** *************** *************** *************** *************** *************** *************** *************** *************** *************** *************** *************** *************** *************** *************** *************** *************** *************** *************** *************** *************** *************** *************** *************** *************** *************** *************** *************** *************** *************** *************** *************** *************** *************** *************** *************** *************** *************** *************** *************** *************** *************** *************** *************** *************** *************** *************** *************** *************** *************** 78825685.418828 *************** *************** *************** *************** *************** 81416788.338384 *************** *************** *************** 42045745.422316  6437325.595522 ***************  3099560.362687  4091504.937456 -2228093.918446  -297540.568297   631395.489591  -157433.655465   -70806.378072    52398.309293    -4325.179098