<?xml version="1.0"?>
<VTKFile type="StructuredGrid">
<StructuredGrid WholeExtent="     0    99     0    99     0     0">
<Piece Extent="     0    99     0    99     0     0">
<Points>
<DataArray type="Float32" NumberOfComponents="3"/>
      -0.002500       -0.002500        0.000000       -0.002449       -0.002500        0.000000       -0.002399       -0.002500        0.000000       -0.002348       -0.002500        0.000000       -0.002298       -0.002500        0.000000       -0.002247       -0.002500        0.000000       -0.002197       -0.002500        0.000000       -0.002146       -0.002500        0.000000       -0.002096       -0.002500        0.000000       -0.002045       -0.002500        0.000000       -0.001995       -0.002500        0.000000       -0.001944       -0.002500        0.000000       -0.001894       -0.002500        0.000000       -0.001843       -0.002500        0.000000       -0.001793       -0.002500        0.000000       -0.001742       -0.002500        0.000000       -0.001692       -0.002500        0.000000       -0.001641       -0.002500        0.000000       -0.001591       -0.002500        0.000000       -0.001540       -0.002500        0.000000       -0.001490       -0.002500        0.000000       -0.001439       -0.002500        0.000000       -0.001389       -0.002500        0.000000       -0.001338       -0.002500        0.000000       -0.001288       -0.002500        0.000000       -0.001237       -0.002500        0.000000       -0.001187       -0.002500        0.000000       -0.001136       -0.002500        0.000000       -0.001086       -0.002500        0.000000       -0.001035       -0.002500        0.000000       -0.000985       -0.002500        0.000000       -0.000934       -0.002500        0.000000       -0.000884       -0.002500        0.000000       -0.000833       -0.002500        0.000000       -0.000783       -0.002500        0.000000       -0.000732       -0.002500        0.000000       -0.000682       -0.002500        0.000000       -0.000631       -0.002500        0.000000       -0.000581       -0.002500        0.000000       -0.000530       -0.002500        0.000000       -0.000480       -0.002500        0.000000       -0.000429       -0.002500        0.000000       -0.000379       -0.002500        0.000000       -0.000328       -0.002500        0.000000       -0.000278       -0.002500        0.000000       -0.000227       -0.002500        0.000000       -0.000177       -0.002500        0.000000       -0.000126       -0.002500        0.000000       -0.000076       -0.002500        0.000000       -0.000025       -0.002500        0.000000        0.000025       -0.002500        0.000000        0.000076       -0.002500        0.000000        0.000126       -0.002500        0.000000        0.000177       -0.002500        0.000000        0.000227       -0.002500        0.000000        0.000278       -0.002500        0.000000        0.000328       -0.002500        0.000000        0.000379       -0.002500        0.000000        0.000429       -0.002500        0.000000        0.000480       -0.002500        0.000000        0.000530       -0.002500        0.000000        0.000581       -0.002500        0.000000        0.000631       -0.002500        0.000000        0.000682       -0.002500        0.000000        0.000732       -0.002500        0.000000        0.000783       -0.002500        0.000000        0.000833       -0.002500        0.000000        0.000884       -0.002500        0.000000        0.000934       -0.002500        0.000000        0.000985       -0.002500        0.000000        0.001035       -0.002500        0.000000        0.001086       -0.002500        0.000000        0.001136       -0.002500        0.000000        0.001187       -0.002500        0.000000        0.001237       -0.002500        0.000000        0.001288       -0.002500        0.000000        0.001338       -0.002500        0.000000        0.001389       -0.002500        0.000000        0.001439       -0.002500        0.000000        0.001490       -0.002500        0.000000        0.001540       -0.002500        0.000000        0.001591       -0.002500        0.000000        0.001641       -0.002500        0.000000        0.001692       -0.002500        0.000000        0.001742       -0.002500        0.000000        0.001793       -0.002500        0.000000        0.001843       -0.002500        0.000000        0.001894       -0.002500        0.000000        0.001944       -0.002500        0.000000        0.001995       -0.002500        0.000000        0.002045       -0.002500        0.000000        0.002096       -0.002500        0.000000        0.002146       -0.002500        0.000000        0.002197       -0.002500        0.000000        0.002247       -0.002500        0.000000        0.002298       -0.002500        0.000000        0.002348       -0.002500        0.000000        0.002399       -0.002500        0.000000        0.002449       -0.002500        0.000000        0.002500       -0.002500        0.000000
      -0.002500       -0.002449        0.000000       -0.002449       -0.002449        0.000000       -0.002399       -0.002449        0.000000       -0.002348       -0.002449        0.000000       -0.002298       -0.002449        0.000000       -0.002247       -0.002449        0.000000       -0.002197       -0.002449        0.000000       -0.002146       -0.002449        0.000000       -0.002096       -0.002449        0.000000       -0.002045       -0.002449        0.000000       -0.001995       -0.002449        0.000000       -0.001944       -0.002449        0.000000       -0.001894       -0.002449        0.000000       -0.001843       -0.002449        0.000000       -0.001793       -0.002449        0.000000       -0.001742       -0.002449        0.000000       -0.001692       -0.002449        0.000000       -0.001641       -0.002449        0.000000       -0.001591       -0.002449        0.000000       -0.001540       -0.002449        0.000000       -0.001490       -0.002449        0.000000       -0.001439       -0.002449        0.000000       -0.001389       -0.002449        0.000000       -0.001338       -0.002449        0.000000       -0.001288       -0.002449        0.000000       -0.001237       -0.002449        0.000000       -0.001187       -0.002449        0.000000       -0.001136       -0.002449        0.000000       -0.001086       -0.002449        0.000000       -0.001035       -0.002449        0.000000       -0.000985       -0.002449        0.000000       -0.000934       -0.002449        0.000000       -0.000884       -0.002449        0.000000       -0.000833       -0.002449        0.000000       -0.000783       -0.002449        0.000000       -0.000732       -0.002449        0.000000       -0.000682       -0.002449        0.000000       -0.000631       -0.002449        0.000000       -0.000581       -0.002449        0.000000       -0.000530       -0.002449        0.000000       -0.000480       -0.002449        0.000000       -0.000429       -0.002449        0.000000       -0.000379       -0.002449        0.000000       -0.000328       -0.002449        0.000000       -0.000278       -0.002449        0.000000       -0.000227       -0.002449        0.000000       -0.000177       -0.002449        0.000000       -0.000126       -0.002449        0.000000       -0.000076       -0.002449        0.000000       -0.000025       -0.002449        0.000000        0.000025       -0.002449        0.000000        0.000076       -0.002449        0.000000        0.000126       -0.002449        0.000000        0.000177       -0.002449        0.000000        0.000227       -0.002449        0.000000        0.000278       -0.002449        0.000000        0.000328       -0.002449        0.000000        0.000379       -0.002449        0.000000        0.000429       -0.002449        0.000000        0.000480       -0.002449        0.000000        0.000530       -0.002449        0.000000        0.000581       -0.002449        0.000000        0.000631       -0.002449        0.000000        0.000682       -0.002449        0.000000        0.000732       -0.002449        0.000000        0.000783       -0.002449        0.000000        0.000833       -0.002449        0.000000        0.000884       -0.002449        0.000000        0.000934       -0.002449        0.000000        0.000985       -0.002449        0.000000        0.001035       -0.002449        0.000000        0.001086       -0.002449        0.000000        0.001136       -0.002449        0.000000        0.001187       -0.002449        0.000000        0.001237       -0.002449        0.000000        0.001288       -0.002449        0.000000        0.001338       -0.002449        0.000000        0.001389       -0.002449        0.000000        0.001439       -0.002449        0.000000        0.001490       -0.002449        0.000000        0.001540       -0.002449        0.000000        0.001591       -0.002449        0.000000        0.001641       -0.002449        0.000000        0.001692       -0.002449        0.000000        0.001742       -0.002449        0.000000        0.001793       -0.002449        0.000000        0.001843       -0.002449        0.000000        0.001894       -0.002449        0.000000        0.001944       -0.002449        0.000000        0.001995       -0.002449        0.000000        0.002045       -0.002449        0.000000        0.002096       -0.002449        0.000000        0.002146       -0.002449        0.000000        0.002197       -0.002449        0.000000        0.002247       -0.002449        0.000000        0.002298       -0.002449        0.000000        0.002348       -0.002449        0.000000        0.002399       -0.002449        0.000000        0.002449       -0.002449        0.000000        0.002500       -0.002449        0.000000
[...]
<CellData Scalars="Temprature, U, V">
<DataArray type="Float32" Name="Temp, K"/>
     292.716130      294.668360      297.442260      290.706054      254.208914      221.988153      290.074310      317.857032      -29.657766     -170.591058      905.044673     1269.908706    -1743.620682    -2596.364826     5298.801044     5354.983579   -17363.415799    -2145.847921    81901.837784   -17190.774385  -407413.002662  -123595.064514  1612465.812362  2117463.458954 -2871169.501101 *************** -8319033.427923 10024835.368254 32967012.774502 40000153.148754 23950027.854644 -1984071.189437 *************** *************** *************** *************** *************** *************** *************** *************** *************** *************** *************** *************** *************** *************** *************** *************** *************** *************** *************** *************** *************** *************** *************** *************** *************** *************** *************** *************** *************** *************** *************** *************** *************** 10384147.841377 -1154567.654874 -9905800.883887 *************** -9758869.443989 -2704210.928002  4593618.092559  4499575.998704 -2478223.539739 -4310850.386603  4024475.538017  8252932.688421 -1462993.160683 -9382906.361770 -1474119.709771  7572628.909070  2558900.411683 -4874134.023898 -2112762.718814  2642535.520317  1204828.113119 -1232783.018627  -511360.798051   493499.699970   164670.298091  -165475.415942   -39922.469088    45778.487437     7964.093176    -9881.089349    -1134.958874     2199.800653      642.847935     -394.090249
     291.299165      293.005511      299.295549      307.947900      278.274265      174.119019      162.398686      393.115773      226.693293     -697.194238     -203.515053     2429.217085      955.735813    -6096.840428    -1732.349043    16537.438018    -2490.529197   -52727.583577    46508.671144   221215.329311  -222936.358982 -1059224.919917   255264.246683  4235571.048707  3835892.125115 -8028309.468701 *************** *************** 17023694.610240 56647463.632917 71793141.854827 54183348.975613 24312170.072106 16975783.186310 -4890442.962374 *************** *************** *************** *************** *************** *************** *************** *************** *************** *************** *************** *************** *************** *************** *************** *************** *************** *************** *************** *************** *************** *************** *************** *************** *************** *************** *************** *************** *************** *************** 21590134.160331 -6627954.116741 *************** *************** -1976579.464535  8620818.020753 11085517.555193  1717208.079469 -6528996.117504   405670.613113 11243250.147990  3946690.324113 *************** -8402008.464196  8971272.704032  9059002.162273 -5257501.743766 -6903091.206357  2703982.465317  4080425.392499 -1316875.828173 -1928137.702456   614280.793155   730918.338035  -257874.622601  -220097.833458    90446.225915    52806.155105   -24764.139206   -10175.806154     5729.307677     2405.029857     -792.470140     -750.099359
     290.919926      291.909516      291.328509      299.592753      335.127451      312.795004       94.965255       56.287933      672.678396      545.041990    -1512.653229    -1120.510392     4560.908268     3422.878109   -12301.839355    -7051.295650    40098.126597     4779.421391  -157207.427989    26959.577882   667676.896226    67269.921296 -2537901.921908 -2178578.092353  6151192.441201 13651289.469326  2039364.517869 *************** *************** *************** 13799302.211374 58188819.808222 73569291.963265 56221072.408395 12248264.406869 -7574802.100464 *************** *************** *************** *************** *************** *************** *************** *************** *************** *************** *************** *************** *************** *************** *************** *************** *************** *************** *************** *************** *************** *************** *************** *************** *************** *************** *************** 62534340.283195 *************** -7908444.073737  3442601.934058  9849992.624257 16839106.003691 20526851.455268 14166043.816150  -360634.010387 -8374811.876483   314771.911113 10297868.052157   818917.006832 *************** -6275168.919778 13228528.661652  9314048.028474 -9300199.561623 -8537397.891082  5564034.897268  5790983.876790 -3023982.445455 -3068207.696867  1519264.579360  1282127.302906  -681769.539198  -416215.437382   258342.309068   102399.074335   -78068.604575   -18479.669628    18705.426716     3366.766628    -3032.155293     -849.613161     -177.461547
     289.945813      292.059610      295.087303      286.147050      286.850647      383.833329      405.228684      -59.373712     -225.412686     1165.044399     1357.564853    -2825.292535    -3487.172551     8163.411211    10315.281956   -25477.633983   -26412.776559    98317.578839    66072.410592  -400649.412316  -255566.240761  1474696.676375  1577153.137433 -3920704.435632 -8278973.561854  2454850.643776 24295152.625510 27816771.015586 -7372299.973702 *************** *************** *************** ***************  5676300.440094 *************** *************** *************** *************** *************** *************** *************** *************** *************** *************** *************** *************** *************** *************** *************** *************** *************** *************** *************** *************** *************** *************** *************** *************** *************** *************** *************** *************** *************** *************** *************** -5301294.738577 20682813.298201 22047180.663146 16808541.326984  4066569.299266 *************** ***************  -517627.126053  9576630.939262 -1093643.585518 *************** -3016785.984042 16617171.313385  7961506.624741 *************** -9267707.296724  9456551.293985  7351029.613546 -5699585.231849 -4400356.460595  3106362.903864  2033392.714862 -1504068.558789  -711592.965735   619132.882914   177634.323750  -205558.310987   -26780.503880    53101.227464     1793.415983    -9652.669068      -59.139871      683.846629     -479.681239
     289.328256      289.114890      294.046536      306.086012      275.529333      238.255778      466.990866      626.193216     -324.187615     -869.278526     1897.964278     3231.664981    -4591.325232    -9440.680252    13775.861678    30152.730118   -51170.232501   -93947.526820   212503.689670   317613.574636  -791255.096398 -1278312.967360  2212784.380324  5332425.261400 -2505150.424422 *************** *************** 22127018.810394 56211249.915069 46513070.834005 -9560774.273510 *************** *************** *************** *************** 45897551.934571 *************** *************** *************** *************** *************** *************** *************** *************** *************** *************** *************** *************** *************** *************** *************** *************** *************** *************** *************** *************** *************** *************** *************** *************** *************** *************** *************** *************** 26853911.296242  3270219.932804 -1033347.927126 -7804827.034253 *************** *************** ***************  2561445.989634 11629459.328030 -1132870.000759 ***************    64440.895816 18239432.911821  5209045.604865 *************** -8675620.125099 13986258.774134  8326567.975709 -9344800.679564 -5709272.903252  5544798.796577  2937241.769510 -2908110.941906 -1112014.393616  1303442.720720   279348.643074  -475513.532128   -27318.828833   134427.108413    -8987.680554   -26938.459087     4371.519556     2975.691216    -1401.409485     -565.288425
     289.303222      290.412791      285.686072      295.570290      337.797779      258.042659      107.950537      598.431986     1095.254784     -697.704177    -2194.144227     2638.657921     7393.253362    -5877.371871   -24420.387746    19689.346966    85245.067760   -86639.293917  -292435.321348   352583.438311  1026085.588168 -1050407.231068 -3630500.395357  1396873.012385 11186701.185074  5743770.716041 *************** *************** -7107908.255807 55043291.466882 94549624.138886 78350414.641448 24156755.735551 *************** *************** *************** *************** *************** *************** *************** *************** *************** *************** *************** *************** *************** *************** *************** *************** *************** *************** *************** *************** *************** *************** *************** *************** *************** *************** *************** *************** *************** *************** *************** 39213347.791066 *************** *************** *************** *************** -5809792.227813 13000632.342213 16037243.651597 -1250167.624230 ***************  1737582.779968 18024623.010372  1919606.656456 *************** -6732843.600468 18443825.802507  8341797.110043 *************** -6703149.302121  8868604.634830  3882151.734763 -5049433.751034 -1601666.121184  2466972.495953   403755.126625  -989722.340824    -6320.867183   308743.578428   -42767.039460   -68398.161625    19383.448896     8750.932068    -5100.806179     -755.715753      237.334018
     287.574625      290.983573      294.850262      273.626281      292.565397      417.632487      233.163255     -179.730738      777.040681     1972.237799     -989.993469    -4704.303901     2201.058304    16435.665590    -2457.763761   -60563.823553    13469.258425   221680.668723   -87664.999018  -764447.634469   317114.656091  2500441.964186  -322042.647172 -7343813.377849 -3431799.904262 15884417.664546 22485682.040524 -9887522.087601 *************** ***************   354135.038228 74227599.262598 *************** 97683407.683073 61581078.043526  4173081.810059 *************** *************** *************** *************** *************** *************** *************** *************** *************** *************** *************** *************** *************** *************** *************** *************** *************** *************** *************** *************** *************** *************** *************** *************** *************** 90656114.107365 *************** *************** -8979774.536974 -6550113.979683 -5730484.609831  3170188.201127 17092518.951223 25734749.047115 16876078.682877 -5514798.782801 ***************  2149888.163502 17069372.697818  -768346.087125 *************** -3921484.941492 22008649.891890  7257266.866750 *************** -7101281.197350 12902852.143280  4708498.730747 -7987136.889852 -2141918.043822  4255376.470059   546036.125008 -1878407.158551    52608.225976   650095.971773  -121933.927535  -160826.892001    59421.886415    23006.999440   -16777.442193     -801.670231     2210.490219     -735.898339
     287.165211      284.896250      296.047005      308.008243      238.585784      277.790710      593.938085      200.049046     -709.447249      924.533559     3360.879308     -369.134596    -9041.688171    -3410.715558    35028.985017    19408.656302  -139072.058726   -48497.322914   507216.702206    94965.960508 -1651675.340286  -410207.747134  4738138.179802  2828368.401433 *************** *************** 12650435.378911 41570194.014830 22875200.808277 *************** *************** *************** *************** 38219075.463097 71666704.567549 18625858.724315 *************** *************** *************** *************** *************** *************** *************** *************** *************** *************** *************** *************** *************** *************** *************** *************** *************** *************** *************** *************** *************** *************** *************** *************** *************** *************** *************** *************** 20290751.655416 27473140.730554 27597150.844893 30920739.105723 25651673.968433  6504565.212163 *************** ***************  3497185.643011 17048493.641488 -2263160.897340 *************** -1075668.417273 24086951.927114  5285458.608774 *************** -6747911.007835 17247172.600674  5252278.459290 *************** -2679698.876707  6750454.450413   708535.923813 -3278178.921925   158216.242319  1262733.873011  -273972.908641  -352479.387229   149234.350916    57677.781472   -48092.461182     -769.959961     8520.534661    -2432.716166    -1038.623113
     288.694228      287.875875      276.511458      310.280944      340.267935      150.739179      247.557344      926.034666      154.653392    -1455.387840      696.918219     4944.371144     3744.091998   -15370.002774   -24984.084643    68765.127394    94964.241122  -283456.019626  -273484.136785   988824.828422   780357.096483 -2901521.639403 -2654106.817508  6852546.030337  9639642.706511 *************** *************** -4969486.402745 47840639.791028 65002523.641665 12221574.467577 *************** *************** *************** *************** *************** 49525067.996845 *************** *************** *************** *************** *************** *************** *************** *************** *************** *************** *************** *************** *************** *************** *************** *************** *************** *************** *************** *************** *************** *************** *************** *************** *************** *************** 17841088.783776  7926309.049213 15078293.823479 13975338.168850  2664893.666942 *************** *************** ***************  8750605.240194 18571428.439604 -3323350.548574 ***************  1102820.174511 24630974.390186  2939890.335641 *************** -5697912.945200 21347669.447387  5404254.446866 *************** -3164307.237080  9912584.239638   910537.650574 -5291052.975857   295175.972314  2271037.995831  -519259.000905  -720515.892283   322608.904933   138930.898708  -121033.764768    -2803.230277    26674.754272    -7336.453420    -3103.892699     1303.796836
     285.515429      294.059742      288.636213      252.615906      349.611089      402.851484      -39.988779      231.856645     1408.269684       87.752281    -1896.055554     -954.983537     4934.620717    17785.170157   -20963.625178   -86494.540212   116820.862195   296228.516805  -490384.912053  -856890.154982  1584377.654291  2432781.669402 -3967914.684918 -7138231.376346  6705563.811972 19508120.701911  -975412.913760 *************** *************** 25456438.034628 85216036.502767 81342575.738147 20071970.455449 *************** *************** *************** 57071592.772037 *************** *************** *************** *************** *************** *************** *************** *************** *************** *************** *************** *************** *************** *************** *************** *************** *************** *************** *************** *************** *************** *************** *************** *************** *************** ***************  -536249.739264 *************** *************** *************** *************** *************** -6032220.792079 18235721.018259 19713818.820320 -5930424.133914 ***************  2633829.486818 24208379.819262   773599.627779 *************** -4210645.386954 24652488.620294  5156711.901104 *************** -3565775.503810 13544161.632860  1193254.921661 -7932125.666025   407778.484354  3791209.868859  -849693.780924 -1371346.574783   612215.920981   317170.783920  -269636.560544   -16311.914805    72862.587531   -18353.768073   -10175.759985     6037.985781     -369.786253
     282.760813      281.269960      310.314835      283.835519      197.210874      452.993435      479.957388     -384.867941      384.204783     1712.517837      -24.081554      -49.003466    -6535.250197    -2404.634227    54912.031113   -13934.674591  -231377.885688   152912.538677   738155.696705  -670193.504047 -2053728.230648  1932373.777771  5439543.232835 -3623605.545702 ***************  1486504.090104 28599345.071677 18441420.042327 *************** *************** *************** 56513416.952092 *************** 98190613.818424 56481299.771144 23306142.968306 -4220771.209269 *************** *************** 80679175.584147 *************** *************** *************** *************** *************** *************** *************** *************** *************** *************** *************** *************** *************** *************** *************** *************** *************** *************** *************** *************** *************** *************** *************** -4440163.762528 *************** *************** *************** -7823959.032995 12694923.381312 26459041.328185 16227075.548389 *************** ***************  4469731.733936 23618900.751761  -995251.968918 *************** -2619572.102871 26794761.108903  4604816.413015 *************** -3883541.569677 17298606.264909  1612973.176620 ***************   394853.853012  5885366.208557 -1204638.974552 -2425350.362282  1027682.555528   675253.183118  -534353.736991   -67827.410698   176081.465711   -36781.601963   -31876.175528    18237.311657       72.021739    -3485.591705
     288.792091      276.761107      274.643371      353.173770      250.437735      100.674016      702.249857      433.435683     -836.866826     1202.891609      545.354552     -305.700446     9497.466972   -20751.977986   -31460.668822   136743.681873    38385.820508  -520953.866965    94668.519203  1551117.597992  -577888.646350 -4041587.793220  1319202.359845  9653694.444624  -257317.340355 *************** *************** 30218684.609572 42361430.960836 -8073792.061568 *************** *************** *************** 49954253.389726 82938576.294608 89638653.538815 58159920.161499 *************** *************** *************** *************** *************** *************** *************** *************** *************** *************** *************** *************** *************** *************** *************** *************** *************** *************** *************** *************** *************** *************** *************** *************** *************** *************** 24774573.748104 12291550.680723  9808408.518581 19285627.593497 28232631.166332 25366474.196262  4964201.906667 *************** ***************  7997731.548372 23207268.418395 -2748575.929456 *************** -1111558.490177 27710807.711380  3882587.525393 *************** -4134082.700549 20744627.843487  2218702.218842 ***************   126782.631111  8509811.741266 -1458048.005240 -3980316.663638  1525886.187377  1325760.827437  -943758.270985  -213681.974894   377715.249789   -54696.989218   -89030.766611    44329.721689     5139.474945   -11916.059576     1913.875282