<?xml version="1.0"?>
<VTKFile type="StructuredGrid">
<StructuredGrid WholeExtent="     0    99     0    99     0     0">
<Piece Extent="     0    99     0    99     0     0">
<Points>
<DataArray type="Float32" NumberOfComponents="3"/>
      -0.002500       -0.002500        0.000000       -0.002449       -0.002500        0.000000       -0.002399       -0.002500        0.000000       -0.002348       -0.002500        0.000000       -0.002298       -0.002500        0.000000       -0.002247       -0.002500        0.000000       -0.002197       -0.002500        0.000000       -0.002146       -0.002500        0.000000       -0.002096       -0.002500        0.000000       -0.002045       -0.002500        0.000000       -0.001995       -0.002500        0.000000       -0.001944       -0.002500        0.000000       -0.001894       -0.002500        0.000000       -0.001843       -0.002500        0.000000       -0.001793       -0.002500        0.000000       -0.001742       -0.002500        0.000000       -0.001692       -0.002500        0.000000       -0.001641       -0.002500        0.000000       -0.001591       -0.002500        0.000000       -0.001540       -0.002500        0.000000       -0.001490       -0.002500        0.000000       -0.001439       -0.002500        0.000000       -0.001389       -0.002500        0.000000       -0.001338       -0.002500        0.000000       -0.001288       -0.002500        0.000000       -0.001237       -0.002500        0.000000       -0.001187       -0.002500        0.000000       -0.001136       -0.002500        0.000000       -0.001086       -0.002500        0.000000       -0.001035       -0.002500        0.000000       -0.000985       -0.002500        0.000000       -0.000934       -0.002500        0.000000       -0.000884       -0.002500        0.000000       -0.000833       -0.002500        0.000000       -0.000783       -0.002500        0.000000       -0.000732       -0.002500        0.000000       -0.000682       -0.002500        0.000000       -0.000631       -0.002500        0.000000       -0.000581       -0.002500        0.000000       -0.000530       -0.002500        0.000000       -0.000480       -0.002500        0.000000       -0.000429       -0.002500        0.000000       -0.000379       -0.002500        0.000000       -0.000328       -0.002500        0.000000       -0.000278       -0.002500        0.000000       -0.000227       -0.002500        0.000000       -0.000177       -0.002500        0.000000       -0.000126       -0.002500        0.000000       -0.000076       -0.002500        0.000000       -0.000025       -0.002500        0.000000        0.000025       -0.002500        0.000000        0.000076       -0.002500        0.000000        0.000126       -0.002500        0.000000        0.000177       -0.002500        0.000000        0.000227       -0.002500        0.000000        0.000278       -0.002500        0.000000        0.000328       -0.002500        0.000000        0.000379       -0.002500        0.000000        0.000429       -0.002500        0.000000        0.000480       -0.002500        0.000000        0.000530       -0.002500        0.000000        0.000581       -0.002500        0.000000        0.000631       -0.002500        0.000000        0.000682       -0.002500        0.000000        0.000732       -0.002500        0.000000        0.000783       -0.002500        0.000000        0.000833       -0.002500        0.000000        0.000884       -0.002500        0.000000        0.000934       -0.002500        0.000000        0.000985       -0.002500        0.000000        0.001035       -0.002500        0.000000        0.001086       -0.002500        0.000000        0.001136       -0.002500        0.000000        0.001187       -0.002500        0.000000        0.001237       -0.002500        0.000000        0.001288       -0.002500        0.000000        0.001338       -0.002500        0.000000        0.001389       -0.002500        0.000000        0.001439       -0.002500        0.000000        0.001490       -0.002500        0.000000        0.001540       -0.002500        0.000000        0.001591       -0.002500        0.000000        0.001641       -0.002500        0.000000        0.001692       -0.002500        0.000000        0.001742       -0.002500        0.000000        0.001793       -0.002500        0.000000        0.001843       -0.002500        0.000000        0.001894       -0.002500        0.000000        0.001944       -0.002500        0.000000        0.001995       -0.002500        0.000000        0.002045       -0.002500        0.000000        0.002096       -0.002500        0.000000        0.002146       -0.002500        0.000000        0.002197       -0.002500        0.000000        0.002247       -0.002500        0.000000        0.002298       -0.002500        0.000000        0.002348       -0.002500        0.000000        0.002399       -0.002500        0.000000        0.002449       -0.002500        0.000000        0.002500       -0.002500        0.000000
      -0.002500       -0.002449        0.000000       -0.002449       -0.002449        0.000000       -0.002399       -0.002449        0.000000       -0.002348       -0.002449        0.000000       -0.002298       -0.002449        0.000000       -0.002247       -0.002449        0.000000       -0.002197       -0.002449        0.000000       -0.002146       -0.002449        0.000000       -0.002096       -0.002449        0.000000       -0.002045       -0.002449        0.000000       -0.001995       -0.002449        0.000000       -0.001944       -0.002449        0.000000       -0.001894       -0.002449        0.000000       -0.001843       -0.002449        0.000000       -0.001793       -0.002449        0.000000       -0.001742       -0.002449        0.000000       -0.001692       -0.002449        0.000000       -0.001641       -0.002449        0.000000       -0.001591       -0.002449        0.000000       -0.001540       -0.002449        0.000000       -0.001490       -0.002449        0.000000       -0.001439       -0.002449        0.000000       -0.001389       -0.002449        0.000000       -0.001338       -0.002449        0.000000       -0.001288       -0.002449        0.000000       -0.001237       -0.002449        0.000000       -0.001187       -0.002449        0.000000       -0.001136       -0.002449        0.000000       -0.001086       -0.002449        0.000000       -0.001035       -0.002449        0.000000       -0.000985       -0.002449        0.000000       -0.000934       -0.002449        0.000000       -0.000884       -0.002449        0.000000       -0.000833       -0.002449        0.000000       -0.000783       -0.002449        0.000000       -0.000732       -0.002449        0.000000       -0.000682       -0.002449        0.000000       -0.000631       -0.002449        0.000000       -0.000581       -0.002449        0.000000       -0.000530       -0.002449        0.000000       -0.000480       -0.002449        0.000000       -0.000429       -0.002449        0.000000       -0.000379       -0.002449        0.000000       -0.000328       -0.002449        0.000000       -0.000278       -0.002449        0.000000       -0.000227       -0.002449        0.000000       -0.000177       -0.002449        0.000000       -0.000126       -0.002449        0.000000       -0.000076       -0.002449        0.000000       -0.000025       -0.002449        0.000000        0.000025       -0.002449        0.000000        0.000076       -0.002449        0.000000        0.000126       -0.002449        0.000000        0.000177       -0.002449        0.000000        0.000227       -0.002449        0.000000        0.000278       -0.002449        0.000000        0.000328       -0.002449        0.000000        0.000379       -0.002449        0.000000        0.000429       -0.002449        0.000000        0.000480       -0.002449        0.000000        0.000530       -0.002449        0.000000        0.000581       -0.002449        0.000000        0.000631       -0.002449        0.000000        0.000682       -0.002449        0.000000        0.000732       -0.002449        0.000000        0.000783       -0.002449        0.000000        0.000833       -0.002449        0.000000        0.000884       -0.002449        0.000000        0.000934       -0.002449        0.000000        0.000985       -0.002449        0.000000        0.001035       -0.002449        0.000000        0.001086       -0.002449        0.000000        0.001136       -0.002449        0.000000        0.001187       -0.002449        0.000000        0.001237       -0.002449        0.000000        0.001288       -0.002449        0.000000        0.001338       -0.002449        0.000000        0.001389       -0.002449        0.000000        0.001439       -0.002449        0.000000        0.001490       -0.002449        0.000000        0.001540       -0.002449        0.000000        0.001591       -0.002449        0.000000        0.001641       -0.002449        0.000000        0.001692       -0.002449        0.000000        0.001742       -0.002449        0.000000        0.001793       -0.002449        0.000000        0.001843       -0.002449        0.000000        0.001894       -0.002449        0.000000        0.001944       -0.002449        0.000000        0.001995       -0.002449        0.000000        0.002045       -0.002449        0.000000        0.002096       -0.002449        0.000000        0.002146       -0.002449        0.000000        0.002197       -0.002449        0.000000        0.002247       -0.002449        0.000000        0.002298       -0.002449        0.000000        0.002348       -0.002449        0.000000        0.002399       -0.002449        0.000000        0.002449       -0.002449        0.000000        0.002500       -0.002449        0.000000
[...]
<CellData Scalars="Temprature, U, V">
<DataArray type="Float32" Name="Temp, K"/>
     292.954614      293.660623      293.470688      291.960630      289.418840      286.105335      281.953239      277.008899      271.537973      265.754416      259.773790      253.736424      247.804059      242.090279      236.657448      231.545782      226.780335      222.367614      218.299285      214.558672      211.126256      207.981596      205.106159      202.478907      200.080919      197.892723      195.893206      194.067667      192.387111      190.779177      188.997956      186.278677      180.573150      166.167463      130.749614       47.598997     -133.982324     -500.958322    -1189.490619    -2390.886215    -4336.303829    -7267.361722   -11365.324664   -16674.621077   -23013.547894   -29937.143545   -36748.658499   -42599.302553   -46654.302813   -48295.001488   -47252.037754   -43693.520232   -38179.373083   -31505.212280   -24534.905572   -18009.136842   -12441.177691    -8070.434338    -4890.115337    -2744.302385    -1400.237436     -616.825224     -193.243886       19.609474      118.570025      161.294131      178.695622      185.618083      188.694918      190.600089      192.214827      193.888819      195.692437      197.664128      199.827365      202.198675      204.788473      207.593948      210.652691      214.115077      218.058697      222.015360      225.438953      229.724564      237.341436      244.950692      244.648905      243.723230      262.276658      283.853388      264.664058      241.516423      294.275335      341.256579      258.355317      211.258127      362.856062      393.083059      -72.452961
     292.426270      294.006972      295.109208      293.947928      290.304114      284.865844      277.804148      269.019601      258.832803      247.752323      236.103600      224.138497      212.169433      200.482093      189.259096      178.609092      168.602290      159.274385      150.628443      142.644356      135.289196      128.524041      122.311299      116.613479      111.392236      106.615338      102.236506       98.231944       94.541136       91.039265       87.349146       82.035308       71.546337       45.464374      -18.516737     -170.133992     -503.088617    -1180.185114    -2457.178503    -4694.569033    -8331.815049   -13826.936684   -21531.239114   -31533.176947   -43498.473351   -56586.068052   -69479.823479   -80569.495373   -88273.345622   -91400.601342   -89447.791377   -82726.247787   -72295.514742   -59669.059845   -46484.990591   -34154.103277   -23641.044906   -15397.202877    -9411.521094    -5383.138174    -2866.029761    -1404.188769     -616.894735     -223.559373      -41.861923       36.250565       67.952819       80.705309       86.650767       90.599084       94.085530       97.754121      101.713799      106.034948      110.758446      115.911611      121.510299      127.588763      134.299950      141.834353      149.883089      157.563584      165.544383      177.378070      192.595230      200.309648      198.774867      215.882050      258.362573      261.447339      211.229725      240.621851      358.720102      317.452745      150.650312      274.096873      526.657957      217.839790     -408.269129
     291.791869      293.190279      295.606596      297.208124      296.210213      292.716068      287.499918      280.594502      271.870065      261.713779      250.651662      238.996233      227.007997      215.014142      203.305356      192.066032      181.405293      171.390744      162.055780      153.404920      145.420150      138.068322      131.306952      125.097272      119.399134      114.180712      109.400901      105.032186      101.032119       97.394400       94.195306       91.630502       90.629587       93.454970      106.300011      141.253531      224.053259      399.075081      737.624819     1342.304692     2340.400588     3868.761503     6033.418477     8869.763321    12288.050649    16052.054017    19778.747106    22998.049424    25239.856309    26160.341286    25599.437186    23653.408726    20632.376823    16984.247310    13188.998752     9653.584251     6660.566370     4331.511816     2655.938215     1540.321005      853.325782      461.393612      255.208623      155.481629      111.893214       95.530155       91.088396       91.519805       93.848842       96.996960      100.563623      104.509802      108.830057      113.549597      118.699011      124.303522      130.405283      137.127552      144.602521      152.576658      160.385919      168.627138      180.269715      195.017591      203.257064      202.286897      217.660718      260.486161      269.226198      215.173298      230.115547      362.058005      350.902983      146.897188      213.915101      549.371424      380.312697     -294.130055     -548.086136
     291.348202      292.272076      294.565229      297.884027      299.919985      299.031870      295.710113      290.732530      283.963524      275.279171      265.141357      254.080518      242.397027      230.365604      218.327984      206.579453      195.307979      184.623425      174.587955      165.230633      156.557410      148.556402      141.195596      134.431503      128.220913      122.520416      117.298931      112.518275      108.154199      104.279410      101.189454      100.382913      105.977179      130.164728      201.262077      381.960353      794.909038     1656.708541     3312.570727     6255.538925    11098.484944    18487.212749    28932.824094    42587.654770    59020.361641    77083.819852    94953.910832   110383.381242   121148.831494   125566.166492   122915.457842   113627.028971    99177.260969    81696.827070    63476.472964    46484.470758    32054.770450    20793.845255    12672.904015     7251.225252     3896.259733     1972.484220      952.718052      454.450099      231.686875      141.517183      109.715826      101.214985      101.121502      103.864632      107.663358      111.948615      116.670920      121.825777      127.442463      133.568235      140.300966      147.730264      155.659018      163.614341      172.115780      183.563180      197.783676      206.565416      206.549661      220.210290      262.196803      277.064816      222.393215      220.076324      358.809753      387.984260      159.696570      144.311594      539.269683      539.377528     -173.407065     -619.675014     -439.668995
     291.033648      291.793824      293.323363      296.635598      300.864413      303.234997      302.426440      299.317066      294.587564      287.931950      279.272293      269.142497      258.064993      246.332633      234.238826      222.137852      210.330000      199.010763      188.292266      178.227683      168.836073      160.123167      152.085615      144.698323      137.920210      131.701344      126.000290      120.774451      115.995250      111.614875      107.509786      103.392264       98.191406       89.174621       68.893588       21.705562      -85.079290     -309.800923     -747.532426    -1536.707318    -2852.335909    -4883.891196    -7784.518838   -11609.817100   -16247.272790   -21377.284061   -26478.091043   -30900.796832   -33996.922985   -35278.082309   -34527.021073   -31871.071401   -27738.431977   -22749.615041   -17567.485191   -12756.370335    -8696.950693    -5552.247509    -3304.284237    -1818.660548     -910.607268     -396.776911     -127.963182        2.237513       60.856791       85.882194       96.891010      102.703628      106.994721      111.083542      115.435536      120.157424      125.316654      130.949438      137.099187      143.843628      151.244615      159.158995      167.270527      176.022090      187.287247      200.959727      210.246176      211.494041      223.703201      263.763654      284.352468      232.503667      212.592805      349.045466      423.362455      191.451274       76.561982      489.050003      687.227150       -7.102317     -683.596808     -535.760865     -283.991195
     290.664585      291.592660      292.749551      294.984251      299.458590      304.553498      307.147245      306.420120      303.572892      299.091214      292.525814      283.880648      273.748790      262.635683      250.834941      238.661082      226.476198      214.585825      203.200400      192.439758      182.346368      172.920080      164.160122      156.069805      148.636221      141.825787      135.589305      129.877924      124.657843      119.804167      115.001543      108.739066       96.496760       64.842152      -19.381106     -230.524026     -717.918130    -1750.449217    -3763.231529    -7385.743355   -13413.448612   -22696.393809   -35924.728914   -53333.949961   -74405.325285   -97680.296534  -120801.253655  -140840.234968  -154881.853992  -160704.997647  -157349.060315  -145367.036304  -126683.485451  -104089.882409   -80578.559833   -58711.769058   -40211.944321   -25843.443384   -15546.201519    -8722.751536    -4538.202993    -2164.725833     -921.986670     -322.762861      -57.466705       50.534335       91.460767      106.979904      114.171168      119.204142      124.031484      129.212958      134.856217      141.028685      147.789573      155.182652      163.112862      171.385572      180.369289      191.474295      204.614941      214.341341      217.053738      228.223207      265.524674      290.725238      244.734192      209.323131      334.303292      451.992658      240.514660       23.262430      399.607663      803.696877      213.076390     -709.044083     -695.256626     -248.529666     -262.805137
     290.190163      291.253557      292.712106      294.202132      297.317052      303.083727      308.944728      311.660287      311.051747      308.516945      304.272683      297.777639      289.141750      278.996667      267.827643      255.941290      243.673466      231.384406      219.382183      207.901764      197.084408      186.965583      177.518520      168.721516      160.576106      153.083211      146.218421      139.941922      134.199280      128.951230      124.232187      120.261536      118.081292      120.665272      136.299151      183.546814      301.402592      561.407117     1081.905200     2037.457629     3652.488078     6172.559090     9802.305261    14622.771054    20501.548742    27036.265091    33561.147082    39240.156137    43234.098625    44902.486803    43963.019493    40575.053671    35291.519382    28915.332742    22302.924595    16182.166038    11036.606690     7070.618853     4254.877880     2410.061997     1294.662733      673.063855      355.109558      206.979408      145.326656      123.657490      118.648462      120.039366      123.728869      128.353425      133.524727      139.203943      145.408378      152.195070      159.602999      167.576075      176.007490      185.196160      196.164048      208.818014      218.914534      223.178550      233.773790      267.823186      296.104959      258.124614      211.204080      317.218648      470.234129      301.495181       -4.656202      280.788595      867.029953      476.246449     -660.689581     -904.980712     -286.905941     -136.139364     -360.878174
     289.723959      290.659983      292.526296      294.339639      296.164949      300.406728      307.546589      314.024688      316.792579      316.371102      314.190643      310.165470      303.727575      295.100218      284.927936      273.679687      261.693090      249.325707      236.919025      224.771343      213.148374      202.233904      192.072954      182.612490      173.796855      165.611121      158.058166      151.131903      144.781592      139.015095      134.005969      131.014363      134.487435      158.192702      238.029593      456.605503      983.752493     2131.391095     4412.296754     8577.949425    15591.796775    26498.377129    42165.186612    62921.661904    88185.985632   116224.954003   144191.419866   168520.070006   185639.394758   192813.248184   188844.728996   174396.180951   151813.798756   124511.495976    96143.176844    69826.931882    47643.180899    30494.846552    18280.643883    10248.328184     5369.539178     2636.173194     1227.931626      564.213019      280.731744      173.107452      138.797528      131.714005      133.654027      138.360347      144.029849      150.283649      157.120294      164.567400      172.604972      181.186013      190.545405      201.396220      213.629738      224.038491      229.842586      240.302038      270.953841      300.674780      271.753291      218.348309      300.873012      476.637315      366.573730       -0.780202      149.873726      861.726947      754.595695     -509.446305    -1130.219053     -431.438488       10.964395     -310.624723     -419.731642
     289.370272      290.074661      291.849676      294.456193      296.417401      298.692250      304.349807      312.862650      319.781328      322.580948      322.436164      320.637114      316.808715      310.424352      301.809554      291.591620      280.233149      268.130977      255.671665      243.155744      230.841057      219.015988      207.926800      197.661125      188.159856      179.330532      171.128218      163.545112      156.583117      150.224242      144.379620      138.784954      132.382280      122.027719       98.928720       42.487043      -91.132376     -384.176473     -974.745510    -2069.128085    -3936.443665    -6874.737710   -11138.414242   -16836.413859   -23822.857147   -31624.110780   -39444.305115   -46275.407833   -51100.005078   -53135.349218   -52035.145263   -47987.078219   -41659.215172   -34023.613541   -26116.209229   -18814.706413   -12696.625537    -8001.735416    -4687.030790    -2529.684817    -1235.041805     -519.288506     -155.395922       14.585769       87.869502      117.864383      130.767682      137.899632      143.650751      149.455141      155.737112      162.604841      170.102374      178.215771      186.931809      196.429990      207.190096      219.092462      229.784551      237.049801      247.732055      275.133455      304.806813      284.924663      230.148999      288.089795      472.118901      427.448539       35.151071       27.707933      784.431758     1009.118372     -244.294816    -1315.648751     -702.288641      129.996550     -159.339221     -513.934278     -348.342156
     289.083505      289.750326      291.034696      293.810616      296.980019      298.905630      301.884714      309.237725      319.026688      326.213691      329.081214      329.310520      327.901934      324.247756      317.925567      309.335478      299.049223      287.533048      275.285833      262.751614      250.173917      237.722459      225.671342      214.333309      203.873783      194.264027      185.395803      177.182196      169.612317      162.663123      156.176439      149.080776      137.212553      107.187975       22.575674     -202.892526     -750.494303    -1959.461858    -4396.102318    -8900.902304   -16565.403374   -28589.289735   -45989.407753   -69186.281638   -97569.895833  -129211.483133  -160892.771472  -188550.946161  -208092.674422  -216365.280181  -211974.415051  -195661.003465  -170101.558397  -139201.007795  -107135.122449   -77456.657264   -52520.104197   -33326.597971   -19730.777727   -10850.593384    -5501.843865    -2535.370254    -1024.898830     -321.752973      -23.877345       90.868143      131.946715      147.288635      155.230927      161.823769      168.715520      176.236980      184.411337      193.239184      202.850413      213.558636      225.244442      236.230193      244.843511      256.001374      280.499118      308.968050      297.270527      245.534308      280.889814      459.513230      477.277956       97.381034      -66.357123      646.204617     1199.452732      119.540253    -1396.900053    -1087.655693      147.976531      101.958934     -561.841411     -461.055153     -234.855974
     288.730821      289.593925      290.617486      292.688792      296.573375      299.999487      301.810385      305.882166      315.140062      326.019315      333.340380      336.366173      337.062441      336.034957      332.532895      326.295716      317.760119      307.386405      295.639310      283.174554      270.561429      258.003092      245.533217      233.339896      221.760716      211.047987      201.241800      192.247969      183.956572      176.295640      169.263133      163.010082      158.396815      158.386433      171.662603      219.521108      348.251521      646.566353     1265.720396     2434.479110     4455.164062     7666.670929    12364.074805    18682.313219    26470.654922    35206.117653    43996.267982    51701.659467    57165.916148    59493.969587    58286.594305    53751.372402    46644.527786    38068.872718    29199.095897    21027.574640    14202.746310     8988.842445     5329.403142     2966.105297     1562.592445      798.190845      418.613845      248.786198      182.241368      161.410938      158.688750      162.457204      168.449169      175.398984      183.016864      191.276203      200.202933      209.914089      220.616344      232.202895      243.507942      253.326842      265.089674      287.121409      313.627866      308.755090      263.276217      280.234242      442.710030      512.034969      175.912259     -119.013407      470.361872     1295.025796      540.283221    -1319.594145    -1533.857271       -9.686741      434.895352     -483.059322     -665.600353     -204.413242     -229.164834
     288.268257      289.290947      290.623930      291.981152      295.164757      300.111108      303.404483      305.205764      310.843571      322.094003      333.819132      341.203956      344.522011      345.767159      345.093926      341.715829      335.598585      327.181636      316.730608      304.660614      291.830143      279.042027      266.536409      254.193637      242.027397      230.314092      219.355433      209.284249      200.046371      191.530396      183.721230      177.325364      175.823389      191.331063      258.471702      461.929052      983.685887     2170.437760     4609.462138     9182.910636    17049.739456    29499.535399    47645.152243    71979.167239   101901.583762   135398.094172   169057.945946   198542.376736   219456.479008   228398.090958   223846.483279   206577.033364   179449.870690   146648.835210   112646.204464    81237.854612    54925.022642    34752.211833    20536.409147    11312.794622     5804.865482     2784.744565     1271.064470      583.093162      303.695201      205.687065      179.176910      177.327623      182.880945      190.501068      198.924507      208.006993      217.852874      228.614958      240.207015      251.835714      262.666302      275.021837      295.014002      319.181802      319.605258      282.264112      286.070488      425.692494      530.956279      259.219048     -125.592620      286.679410     1283.619574      958.363912    -1058.743577    -1951.331699     -387.248223      745.897143     -207.225913     -902.218772     -307.768198      -72.276936     -346.611920