<?xml version="1.0"?>
<VTKFile type="StructuredGrid">
<StructuredGrid WholeExtent="     0    99     0    99     0     0">
<Piece Extent="     0    99     0    99     0     0">
<Points>
<DataArray type="Float32" NumberOfComponents="3"/>
      -0.002500       -0.002500        0.000000       -0.002449       -0.002500        0.000000       -0.002399       -0.002500        0.000000       -0.002348       -0.002500        0.000000       -0.002298       -0.002500        0.000000       -0.002247       -0.002500        0.000000       -0.002197       -0.002500        0.000000       -0.002146       -0.002500        0.000000       -0.002096       -0.002500        0.000000       -0.002045       -0.002500        0.000000       -0.001995       -0.002500        0.000000       -0.001944       -0.002500        0.000000       -0.001894       -0.002500        0.000000       -0.001843       -0.002500        0.000000       -0.001793       -0.002500        0.000000       -0.001742       -0.002500        0.000000       -0.001692       -0.002500        0.000000       -0.001641       -0.002500        0.000000       -0.001591       -0.002500        0.000000       -0.001540       -0.002500        0.000000       -0.001490       -0.002500        0.000000       -0.001439       -0.002500        0.000000       -0.001389       -0.002500        0.000000       -0.001338       -0.002500        0.000000       -0.001288       -0.002500        0.000000       -0.001237       -0.002500        0.000000       -0.001187       -0.002500        0.000000       -0.001136       -0.002500        0.000000       -0.001086       -0.002500        0.000000       -0.001035       -0.002500        0.000000       -0.000985       -0.002500        0.000000       -0.000934       -0.002500        0.000000       -0.000884       -0.002500        0.000000       -0.000833       -0.002500        0.000000       -0.000783       -0.002500        0.000000       -0.000732       -0.002500        0.000000       -0.000682       -0.002500        0.000000       -0.000631       -0.002500        0.000000       -0.000581       -0.002500        0.000000       -0.000530       -0.002500        0.000000       -0.000480       -0.002500        0.000000       -0.000429       -0.002500        0.000000       -0.000379       -0.002500        0.000000       -0.000328       -0.002500        0.000000       -0.000278       -0.002500        0.000000       -0.000227       -0.002500        0.000000       -0.000177       -0.002500        0.000000       -0.000126       -0.002500        0.000000       -0.000076       -0.002500        0.000000       -0.000025       -0.002500        0.000000        0.000025       -0.002500        0.000000        0.000076       -0.002500        0.000000        0.000126       -0.002500        0.000000        0.000177       -0.002500        0.000000        0.000227       -0.002500        0.000000        0.000278       -0.002500        0.000000        0.000328       -0.002500        0.000000        0.000379       -0.002500        0.000000        0.000429       -0.002500        0.000000        0.000480       -0.002500        0.000000        0.000530       -0.002500        0.000000        0.000581       -0.002500        0.000000        0.000631       -0.002500        0.000000        0.000682       -0.002500        0.000000        0.000732       -0.002500        0.000000        0.000783       -0.002500        0.000000        0.000833       -0.002500        0.000000        0.000884       -0.002500        0.000000        0.000934       -0.002500        0.000000        0.000985       -0.002500        0.000000        0.001035       -0.002500        0.000000        0.001086       -0.002500        0.000000        0.001136       -0.002500        0.000000        0.001187       -0.002500        0.000000        0.001237       -0.002500        0.000000        0.001288       -0.002500        0.000000        0.001338       -0.002500        0.000000        0.001389       -0.002500        0.000000        0.001439       -0.002500        0.000000        0.001490       -0.002500        0.000000        0.001540       -0.002500        0.000000        0.001591       -0.002500        0.000000        0.001641       -0.002500        0.000000        0.001692       -0.002500        0.000000        0.001742       -0.002500        0.000000        0.001793       -0.002500        0.000000        0.001843       -0.002500        0.000000        0.001894       -0.002500        0.000000        0.001944       -0.002500        0.000000        0.001995       -0.002500        0.000000        0.002045       -0.002500        0.000000        0.002096       -0.002500        0.000000        0.002146       -0.002500        0.000000        0.002197       -0.002500        0.000000        0.002247       -0.002500        0.000000        0.002298       -0.002500        0.000000        0.002348       -0.002500        0.000000        0.002399       -0.002500        0.000000        0.002449       -0.002500        0.000000        0.002500       -0.002500        0.000000
      -0.002500       -0.002449        0.000000       -0.002449       -0.002449        0.000000       -0.002399       -0.002449        0.000000       -0.002348       -0.002449        0.000000       -0.002298       -0.002449        0.000000       -0.002247       -0.002449        0.000000       -0.002197       -0.002449        0.000000       -0.002146       -0.002449        0.000000       -0.002096       -0.002449        0.000000       -0.002045       -0.002449        0.000000       -0.001995       -0.002449        0.000000       -0.001944       -0.002449        0.000000       -0.001894       -0.002449        0.000000       -0.001843       -0.002449        0.000000       -0.001793       -0.002449        0.000000       -0.001742       -0.002449        0.000000       -0.001692       -0.002449        0.000000       -0.001641       -0.002449        0.000000       -0.001591       -0.002449        0.000000       -0.001540       -0.002449        0.000000       -0.001490       -0.002449        0.000000       -0.001439       -0.002449        0.000000       -0.001389       -0.002449        0.000000       -0.001338       -0.002449        0.000000       -0.001288       -0.002449        0.000000       -0.001237       -0.002449        0.000000       -0.001187       -0.002449        0.000000       -0.001136       -0.002449        0.000000       -0.001086       -0.002449        0.000000       -0.001035       -0.002449        0.000000       -0.000985       -0.002449        0.000000       -0.000934       -0.002449        0.000000       -0.000884       -0.002449        0.000000       -0.000833       -0.002449        0.000000       -0.000783       -0.002449        0.000000       -0.000732       -0.002449        0.000000       -0.000682       -0.002449        0.000000       -0.000631       -0.002449        0.000000       -0.000581       -0.002449        0.000000       -0.000530       -0.002449        0.000000       -0.000480       -0.002449        0.000000       -0.000429       -0.002449        0.000000       -0.000379       -0.002449        0.000000       -0.000328       -0.002449        0.000000       -0.000278       -0.002449        0.000000       -0.000227       -0.002449        0.000000       -0.000177       -0.002449        0.000000       -0.000126       -0.002449        0.000000       -0.000076       -0.002449        0.000000       -0.000025       -0.002449        0.000000        0.000025       -0.002449        0.000000        0.000076       -0.002449        0.000000        0.000126       -0.002449        0.000000        0.000177       -0.002449        0.000000        0.000227       -0.002449        0.000000        0.000278       -0.002449        0.000000        0.000328       -0.002449        0.000000        0.000379       -0.002449        0.000000        0.000429       -0.002449        0.000000        0.000480       -0.002449        0.000000        0.000530       -0.002449        0.000000        0.000581       -0.002449        0.000000        0.000631       -0.002449        0.000000        0.000682       -0.002449        0.000000        0.000732       -0.002449        0.000000        0.000783       -0.002449        0.000000        0.000833       -0.002449        0.000000        0.000884       -0.002449        0.000000        0.000934       -0.002449        0.000000        0.000985       -0.002449        0.000000        0.001035       -0.002449        0.000000        0.001086       -0.002449        0.000000        0.001136       -0.002449        0.000000        0.001187       -0.002449        0.000000        0.001237       -0.002449        0.000000        0.001288       -0.002449        0.000000        0.001338       -0.002449        0.000000        0.001389       -0.002449        0.000000        0.001439       -0.002449        0.000000        0.001490       -0.002449        0.000000        0.001540       -0.002449        0.000000        0.001591       -0.002449        0.000000        0.001641       -0.002449        0.000000        0.001692       -0.002449        0.000000        0.001742       -0.002449        0.000000        0.001793       -0.002449        0.000000        0.001843       -0.002449        0.000000        0.001894       -0.002449        0.000000        0.001944       -0.002449        0.000000        0.001995       -0.002449        0.000000        0.002045       -0.002449        0.000000        0.002096       -0.002449        0.000000        0.002146       -0.002449        0.000000        0.002197       -0.002449        0.000000        0.002247       -0.002449        0.000000        0.002298       -0.002449        0.000000        0.002348       -0.002449        0.000000        0.002399       -0.002449        0.000000        0.002449       -0.002449        0.000000        0.002500       -0.002449        0.000000
[...]
<CellData Scalars="Temprature, U, V">
<DataArray type="Float32" Name="Temp, K"/>
     291.939550      323.539855      219.599103    -4352.534169    55132.373591  -161089.278748 -1310200.115993 13930548.652191 *************** *************** *************** *************** *************** *************** *************** *************** *************** *************** *************** *************** *************** *************** *************** *************** *************** *************** *************** *************** *************** *************** *************** *************** *************** *************** *************** *************** *************** *************** *************** *************** *************** *************** *************** *************** *************** *************** *************** *************** *************** *************** *************** *************** *************** *************** *************** *************** *************** *************** *************** *************** *************** *************** *************** *************** *************** *************** *************** *************** *************** *************** *************** *************** *************** *************** *************** *************** *************** *************** *************** *************** *************** *************** *************** *************** *************** *************** *************** *************** *************** *************** *************** *************** *************** 13129266.513813 -7940947.885746   760278.780145    36168.945492    -9074.635102     -438.151705
     288.835445      174.476780     2480.632520   -10027.075771   -61818.627883   987858.552613 -4468645.088734  -913886.813621 *************** *************** *************** *************** *************** *************** *************** *************** *************** *************** *************** *************** *************** *************** *************** *************** *************** *************** *************** *************** *************** *************** *************** *************** *************** *************** *************** *************** *************** *************** *************** *************** *************** *************** *************** *************** *************** *************** *************** *************** *************** *************** *************** *************** *************** *************** *************** *************** *************** *************** *************** *************** *************** *************** *************** *************** *************** *************** *************** *************** *************** *************** *************** *************** *************** *************** *************** *************** *************** *************** *************** *************** *************** *************** *************** *************** *************** *************** *************** *************** *************** *************** *************** *************** *************** ***************  9010886.981010  1658775.439300  -404737.333026    17689.172039     1014.666548
     329.046572       48.811678    -4952.112844    70593.332825  -279333.404096  -794773.140574 13340625.335716 *************** 16219196.978807 *************** *************** *************** *************** *************** *************** *************** *************** *************** *************** *************** *************** *************** *************** *************** *************** *************** *************** *************** *************** *************** *************** *************** *************** *************** *************** *************** *************** *************** *************** *************** *************** *************** *************** *************** *************** *************** *************** *************** *************** *************** *************** *************** *************** *************** *************** *************** *************** *************** *************** *************** *************** *************** *************** *************** *************** *************** *************** *************** *************** *************** *************** *************** *************** *************** *************** *************** *************** *************** *************** *************** *************** *************** *************** *************** *************** *************** *************** *************** *************** *************** *************** *************** *************** *************** 25760949.822086 -9329529.961190   742746.763911    77298.304305   -14015.515056
     113.238755     3714.468993   -11379.517777  -112963.323934  1306397.555266 -4644725.903667 -6556724.469250 *************** *************** *************** *************** *************** *************** *************** *************** *************** *************** *************** *************** *************** *************** *************** *************** *************** *************** *************** *************** *************** *************** *************** *************** *************** *************** *************** *************** *************** *************** *************** *************** *************** *************** *************** *************** *************** *************** *************** *************** *************** *************** *************** *************** *************** *************** *************** *************** *************** *************** *************** *************** *************** *************** *************** *************** *************** *************** *************** *************** *************** *************** *************** *************** *************** *************** *************** *************** *************** *************** *************** *************** *************** *************** *************** *************** *************** *************** *************** *************** *************** *************** *************** *************** *************** *************** *************** *************** 14966916.786163  1725282.398396  -606978.020662    35418.950479
     -59.686161    -8947.955023    98279.723619  -285925.385680 -1497285.307494 16237343.646919 *************** *************** *************** *************** *************** *************** *************** *************** *************** *************** *************** *************** *************** *************** *************** *************** *************** *************** *************** *************** *************** *************** *************** *************** *************** *************** *************** *************** *************** *************** *************** *************** *************** *************** *************** *************** *************** *************** *************** *************** *************** *************** *************** *************** *************** *************** *************** *************** *************** *************** *************** *************** *************** *************** *************** *************** *************** *************** *************** *************** *************** *************** *************** *************** *************** *************** *************** *************** *************** *************** *************** *************** *************** *************** *************** *************** *************** *************** *************** *************** *************** *************** *************** *************** *************** *************** *************** *************** *************** 21021302.461727 ***************  1308213.099574    93904.547104
    5309.461665   -10735.377479  -189172.815294  1645920.628928 -4360267.502002 *************** *************** *************** *************** *************** *************** *************** *************** *************** *************** *************** *************** *************** *************** *************** *************** *************** *************** *************** *************** *************** *************** *************** *************** *************** *************** *************** *************** *************** *************** *************** *************** *************** *************** *************** *************** *************** *************** *************** *************** *************** *************** *************** *************** *************** *************** *************** *************** *************** *************** *************** *************** *************** *************** *************** *************** *************** *************** *************** *************** *************** *************** *************** *************** *************** *************** *************** *************** *************** *************** *************** *************** *************** *************** *************** *************** *************** *************** *************** *************** *************** *************** *************** *************** *************** *************** *************** *************** *************** *************** *************** 22510783.734246  1386192.357838  -870070.970970
  -13110.386693   131269.974793  -244565.489857 -2406188.023984 18655847.771760 *************** *************** *************** *************** 20659730.468099 *************** *************** *************** *************** *************** *************** *************** *************** *************** *************** *************** *************** *************** *************** *************** *************** *************** *************** *************** *************** *************** *************** *************** *************** *************** *************** *************** *************** *************** *************** *************** *************** *************** *************** *************** *************** *************** *************** *************** *************** *************** *************** *************** *************** *************** *************** *************** *************** *************** *************** *************** *************** *************** *************** *************** *************** *************** *************** *************** *************** *************** *************** *************** *************** *************** *************** *************** *************** *************** *************** *************** *************** *************** *************** *************** *************** *************** *************** *************** *************** *************** *************** *************** *************** *************** *************** 11368231.877143 ***************  2083523.629900
  -15265.674603  -295379.628181  1959471.659985 -3487216.732296 *************** *************** *************** *************** *************** *************** *************** *************** *************** *************** *************** *************** *************** *************** *************** *************** *************** *************** *************** *************** *************** *************** *************** *************** *************** *************** *************** *************** *************** *************** *************** *************** *************** *************** *************** *************** *************** *************** *************** *************** *************** *************** *************** *************** *************** *************** *************** *************** *************** *************** *************** *************** *************** *************** *************** *************** *************** *************** *************** *************** *************** *************** *************** *************** *************** *************** *************** *************** *************** *************** *************** *************** *************** *************** *************** *************** *************** *************** *************** *************** *************** *************** *************** *************** *************** *************** *************** *************** *************** *************** *************** 59390765.361181 *************** 30759402.562432   602663.619749
  179068.633173  -136227.473784 -3466735.428112 20116634.152831 *************** *************** *************** *************** *************** *************** *************** *************** *************** *************** *************** *************** *************** *************** *************** *************** *************** *************** *************** *************** *************** *************** *************** *************** *************** *************** *************** *************** *************** *************** *************** *************** *************** *************** *************** *************** *************** *************** *************** *************** *************** *************** *************** *************** *************** *************** *************** *************** *************** *************** *************** *************** *************** *************** *************** *************** *************** *************** *************** *************** *************** *************** *************** *************** *************** *************** *************** *************** *************** *************** *************** *************** *************** *************** *************** *************** *************** *************** *************** *************** *************** *************** *************** *************** *************** *************** *************** *************** *************** *************** *************** *************** *************** -2414369.257133 ***************
 -378531.402880  2206853.723095 -1979816.224830 *************** *************** *************** *************** *************** *************** *************** *************** *************** *************** *************** *************** *************** *************** *************** *************** *************** *************** *************** *************** *************** *************** *************** *************** *************** *************** *************** *************** *************** *************** *************** *************** *************** *************** *************** *************** *************** *************** *************** *************** *************** *************** *************** *************** *************** *************** *************** *************** *************** *************** *************** *************** *************** *************** *************** *************** *************** *************** *************** *************** *************** *************** *************** *************** *************** *************** *************** *************** *************** *************** *************** *************** *************** *************** *************** *************** *************** *************** *************** *************** *************** *************** *************** *************** *************** *************** *************** *************** *************** *************** *************** *************** *************** *************** *************** 36463078.460510
 -230594.912731 -4606771.171254 20214135.038478 *************** *************** *************** *************** *************** *************** *************** *************** *************** *************** *************** *************** *************** *************** *************** *************** *************** *************** *************** *************** *************** *************** *************** *************** *************** *************** *************** *************** *************** *************** *************** *************** *************** *************** *************** *************** *************** *************** *************** *************** *************** *************** *************** *************** *************** *************** *************** *************** *************** *************** *************** *************** *************** *************** *************** *************** *************** *************** *************** *************** *************** *************** *************** *************** *************** *************** *************** *************** *************** *************** *************** *************** *************** *************** *************** *************** *************** *************** *************** *************** *************** *************** *************** *************** *************** *************** *************** *************** *************** *************** *************** *************** *************** *************** *************** ***************
 2756809.885704    -4582.773433 *************** *************** *************** *************** *************** *************** *************** *************** *************** *************** *************** *************** *************** *************** *************** *************** *************** *************** *************** *************** *************** *************** *************** *************** *************** *************** *************** *************** *************** *************** *************** *************** *************** *************** *************** *************** *************** *************** *************** *************** *************** *************** *************** *************** *************** *************** *************** *************** *************** *************** *************** *************** *************** *************** *************** *************** *************** *************** *************** *************** *************** *************** *************** *************** *************** *************** *************** *************** *************** *************** *************** *************** *************** *************** *************** *************** *************** *************** *************** *************** *************** *************** *************** *************** *************** *************** *************** *************** *************** *************** *************** *************** *************** *************** *************** *************** ***************