<?xml version="1.0"?>
<VTKFile type="StructuredGrid">
<StructuredGrid WholeExtent="     0    99     0    99     0     0">
<Piece Extent="     0    99     0    99     0     0">
<Points>
<DataArray type="Float32" NumberOfComponents="3"/>
      -0.002500       -0.002500        0.000000       -0.002449       -0.002500        0.000000       -0.002399       -0.002500        0.000000       -0.002348       -0.002500        0.000000       -0.002298       -0.002500        0.000000       -0.002247       -0.002500        0.000000       -0.002197       -0.002500        0.000000       -0.002146       -0.002500        0.000000       -0.002096       -0.002500        0.000000       -0.002045       -0.002500        0.000000       -0.001995       -0.002500        0.000000       -0.001944       -0.002500        0.000000       -0.001894       -0.002500        0.000000       -0.001843       -0.002500        0.000000       -0.001793       -0.002500        0.000000       -0.001742       -0.002500        0.000000       -0.001692       -0.002500        0.000000       -0.001641       -0.002500        0.000000       -0.001591       -0.002500        0.000000       -0.001540       -0.002500        0.000000       -0.001490       -0.002500        0.000000       -0.001439       -0.002500        0.000000       -0.001389       -0.002500        0.000000       -0.001338       -0.002500        0.000000       -0.001288       -0.002500        0.000000       -0.001237       -0.002500        0.000000       -0.001187       -0.002500        0.000000       -0.001136       -0.002500        0.000000       -0.001086       -0.002500        0.000000       -0.001035       -0.002500        0.000000       -0.000985       -0.002500        0.000000       -0.000934       -0.002500        0.000000       -0.000884       -0.002500        0.000000       -0.000833       -0.002500        0.000000       -0.000783       -0.002500        0.000000       -0.000732       -0.002500        0.000000       -0.000682       -0.002500        0.000000       -0.000631       -0.002500        0.000000       -0.000581       -0.002500        0.000000       -0.000530       -0.002500        0.000000       -0.000480       -0.002500        0.000000       -0.000429       -0.002500        0.000000       -0.000379       -0.002500        0.000000       -0.000328       -0.002500        0.000000       -0.000278       -0.002500        0.000000       -0.000227       -0.002500        0.000000       -0.000177       -0.002500        0.000000       -0.000126       -0.002500        0.000000       -0.000076       -0.002500        0.000000       -0.000025       -0.002500        0.000000        0.000025       -0.002500        0.000000        0.000076       -0.002500        0.000000        0.000126       -0.002500        0.000000        0.000177       -0.002500        0.000000        0.000227       -0.002500        0.000000        0.000278       -0.002500        0.000000        0.000328       -0.002500        0.000000        0.000379       -0.002500        0.000000        0.000429       -0.002500        0.000000        0.000480       -0.002500        0.000000        0.000530       -0.002500        0.000000        0.000581       -0.002500        0.000000        0.000631       -0.002500        0.000000        0.000682       -0.002500        0.000000        0.000732       -0.002500        0.000000        0.000783       -0.002500        0.000000        0.000833       -0.002500        0.000000        0.000884       -0.002500        0.000000        0.000934       -0.002500        0.000000        0.000985       -0.002500        0.000000        0.001035       -0.002500        0.000000        0.001086       -0.002500        0.000000        0.001136       -0.002500        0.000000        0.001187       -0.002500        0.000000        0.001237       -0.002500        0.000000        0.001288       -0.002500        0.000000        0.001338       -0.002500        0.000000        0.001389       -0.002500        0.000000        0.001439       -0.002500        0.000000        0.001490       -0.002500        0.000000        0.001540       -0.002500        0.000000        0.001591       -0.002500        0.000000        0.001641       -0.002500        0.000000        0.001692       -0.002500        0.000000        0.001742       -0.002500        0.000000        0.001793       -0.002500        0.000000        0.001843       -0.002500        0.000000        0.001894       -0.002500        0.000000        0.001944       -0.002500        0.000000        0.001995       -0.002500        0.000000        0.002045       -0.002500        0.000000        0.002096       -0.002500        0.000000        0.002146       -0.002500        0.000000        0.002197       -0.002500        0.000000        0.002247       -0.002500        0.000000        0.002298       -0.002500        0.000000        0.002348       -0.002500        0.000000        0.002399       -0.002500        0.000000        0.002449       -0.002500        0.000000        0.002500       -0.002500        0.000000
      -0.002500       -0.002449        0.000000       -0.002449       -0.002449        0.000000       -0.002399       -0.002449        0.000000       -0.002348       -0.002449        0.000000       -0.002298       -0.002449        0.000000       -0.002247       -0.002449        0.000000       -0.002197       -0.002449        0.000000       -0.002146       -0.002449        0.000000       -0.002096       -0.002449        0.000000       -0.002045       -0.002449        0.000000       -0.001995       -0.002449        0.000000       -0.001944       -0.002449        0.000000       -0.001894       -0.002449        0.000000       -0.001843       -0.002449        0.000000       -0.001793       -0.002449        0.000000       -0.001742       -0.002449        0.000000       -0.001692       -0.002449        0.000000       -0.001641       -0.002449        0.000000       -0.001591       -0.002449        0.000000       -0.001540       -0.002449        0.000000       -0.001490       -0.002449        0.000000       -0.001439       -0.002449        0.000000       -0.001389       -0.002449        0.000000       -0.001338       -0.002449        0.000000       -0.001288       -0.002449        0.000000       -0.001237       -0.002449        0.000000       -0.001187       -0.002449        0.000000       -0.001136       -0.002449        0.000000       -0.001086       -0.002449        0.000000       -0.001035       -0.002449        0.000000       -0.000985       -0.002449        0.000000       -0.000934       -0.002449        0.000000       -0.000884       -0.002449        0.000000       -0.000833       -0.002449        0.000000       -0.000783       -0.002449        0.000000       -0.000732       -0.002449        0.000000       -0.000682       -0.002449        0.000000       -0.000631       -0.002449        0.000000       -0.000581       -0.002449        0.000000       -0.000530       -0.002449        0.000000       -0.000480       -0.002449        0.000000       -0.000429       -0.002449        0.000000       -0.000379       -0.002449        0.000000       -0.000328       -0.002449        0.000000       -0.000278       -0.002449        0.000000       -0.000227       -0.002449        0.000000       -0.000177       -0.002449        0.000000       -0.000126       -0.002449        0.000000       -0.000076       -0.002449        0.000000       -0.000025       -0.002449        0.000000        0.000025       -0.002449        0.000000        0.000076       -0.002449        0.000000        0.000126       -0.002449        0.000000        0.000177       -0.002449        0.000000        0.000227       -0.002449        0.000000        0.000278       -0.002449        0.000000        0.000328       -0.002449        0.000000        0.000379       -0.002449        0.000000        0.000429       -0.002449        0.000000        0.000480       -0.002449        0.000000        0.000530       -0.002449        0.000000        0.000581       -0.002449        0.000000        0.000631       -0.002449        0.000000        0.000682       -0.002449        0.000000        0.000732       -0.002449        0.000000        0.000783       -0.002449        0.000000        0.000833       -0.002449        0.000000        0.000884       -0.002449        0.000000        0.000934       -0.002449        0.000000        0.000985       -0.002449        0.000000        0.001035       -0.002449        0.000000        0.001086       -0.002449        0.000000        0.001136       -0.002449        0.000000        0.001187       -0.002449        0.000000        0.001237       -0.002449        0.000000        0.001288       -0.002449        0.000000        0.001338       -0.002449        0.000000        0.001389       -0.002449        0.000000        0.001439       -0.002449        0.000000        0.001490       -0.002449        0.000000        0.001540       -0.002449        0.000000        0.001591       -0.002449        0.000000        0.001641       -0.002449        0.000000        0.001692       -0.002449        0.000000        0.001742       -0.002449        0.000000        0.001793       -0.002449        0.000000        0.001843       -0.002449        0.000000        0.001894       -0.002449        0.000000        0.001944       -0.002449        0.000000        0.001995       -0.002449        0.000000        0.002045       -0.002449        0.000000        0.002096       -0.002449        0.000000        0.002146       -0.002449        0.000000        0.002197       -0.002449        0.000000        0.002247       -0.002449        0.000000        0.002298       -0.002449        0.000000        0.002348       -0.002449        0.000000        0.002399       -0.002449        0.000000        0.002449       -0.002449        0.000000        0.002500       -0.002449        0.000000
[...]
<CellData Scalars="Temprature, U, V">
<DataArray type="Float32" Name="Temp, K"/>
     292.415640      293.971454      297.490746      335.784462      294.274415     -555.140210     4140.220727    -4474.349692  -147861.559018   465507.381581  1538404.154534 -8835683.103694   885301.821154 71795884.890915 *************** *************** *************** *************** *************** *************** *************** *************** *************** *************** *************** *************** *************** *************** *************** *************** *************** *************** *************** *************** *************** *************** *************** *************** *************** *************** *************** *************** *************** *************** *************** *************** *************** *************** *************** *************** *************** *************** *************** *************** *************** *************** *************** *************** *************** *************** *************** *************** *************** *************** *************** *************** *************** *************** *************** *************** *************** *************** *************** *************** *************** *************** *************** *************** *************** *************** *************** *************** *************** *************** *************** *************** *************** *************** *************** ***************  6335420.226659 ***************  1201759.660314   470258.945848   -68849.925177    13082.000917     2682.160884     -705.666405     -598.633562
     290.624683      292.583073      288.427651      291.795318      755.946368     -660.325171    -7754.910215    52731.177259   -61705.449600  -819557.657572  3321640.914848  1994361.832324 *************** 66859862.463276 *************** *************** *************** *************** *************** *************** *************** *************** *************** *************** *************** *************** *************** *************** *************** *************** *************** *************** *************** *************** *************** *************** *************** *************** *************** *************** *************** *************** *************** *************** *************** *************** *************** *************** *************** *************** *************** *************** *************** *************** *************** *************** *************** *************** *************** *************** *************** *************** *************** *************** *************** *************** *************** *************** *************** *************** *************** *************** *************** *************** *************** *************** *************** *************** *************** *************** *************** *************** *************** *************** *************** *************** *************** *************** *************** *************** ***************  7424444.218221  4695230.888634 -1139374.513665     3946.269341    46595.062823    -6957.058903    -1431.747772     -322.520156
     289.301690      291.030804      318.547028      196.543698     -301.764793     6123.304485    -7338.054168   -94180.781595   466873.568305   -37951.555950 -5948445.799670 15791302.097266 17760506.191207 *************** *************** *************** *************** *************** *************** *************** *************** *************** *************** *************** *************** *************** *************** *************** *************** *************** *************** *************** *************** *************** *************** *************** *************** *************** *************** *************** *************** *************** *************** *************** *************** *************** *************** *************** *************** *************** *************** *************** *************** *************** *************** *************** *************** *************** *************** *************** *************** *************** *************** *************** *************** *************** *************** *************** *************** *************** *************** *************** *************** *************** *************** *************** *************** *************** *************** *************** *************** *************** *************** *************** *************** *************** *************** *************** *************** *************** *************** 26244850.872416 ***************   486603.997493   570051.474261  -107952.680305    -4174.034077     2581.217803     -675.814892
     289.507823      282.564905      259.104215      803.847442     -674.821157    -9748.439696    59622.127478   -25125.222089  -825390.423374  2835106.279016  1380735.386311 *************** 66102041.729081 90023845.540038 *************** *************** *************** *************** *************** *************** *************** *************** *************** *************** *************** *************** *************** *************** *************** *************** *************** *************** *************** *************** *************** *************** *************** *************** *************** *************** *************** *************** *************** *************** *************** *************** *************** *************** *************** *************** *************** *************** *************** *************** *************** *************** *************** *************** *************** *************** *************** *************** *************** *************** *************** *************** *************** *************** *************** *************** *************** *************** *************** *************** *************** *************** *************** *************** *************** *************** *************** *************** *************** *************** *************** *************** *************** *************** *************** *************** 68175083.797013 *************** 10470894.962729  4409021.109052 -1463860.463154     8777.299281    57100.029094    -7419.834893     -713.610860
     287.752819      323.777609      184.694491     -606.365695     6939.040032    -4426.617742  -106767.151926   436169.751602    55387.994118 -5226150.408448 13972568.204403 10731325.116905 *************** *************** *************** *************** *************** *************** *************** *************** *************** *************** *************** *************** *************** *************** *************** *************** *************** *************** *************** *************** *************** *************** *************** *************** *************** *************** *************** *************** *************** *************** *************** *************** *************** *************** *************** *************** *************** *************** *************** *************** *************** *************** *************** *************** *************** *************** *************** *************** *************** *************** *************** *************** *************** *************** *************** *************** *************** *************** *************** *************** *************** *************** *************** *************** *************** *************** *************** *************** *************** *************** *************** *************** *************** *************** *************** *************** *************** *************** *************** 88878236.367036 19809605.668230 ***************   945505.200438   610624.361140  -148796.593032    -3836.624888     3831.608054
     276.608606      227.803250      929.367778     -381.026051   -12257.020256    59535.192426    -3957.909073  -800680.928688  2528692.390821  1043650.418272 *************** 59773256.993953 54698301.942241 *************** *************** *************** *************** *************** *************** *************** *************** *************** *************** *************** *************** *************** *************** *************** *************** *************** *************** *************** *************** *************** *************** *************** *************** *************** *************** *************** *************** *************** *************** *************** *************** *************** *************** *************** *************** *************** *************** *************** *************** *************** *************** *************** *************** *************** *************** *************** *************** *************** *************** *************** *************** *************** *************** *************** *************** *************** *************** *************** *************** *************** *************** *************** *************** *************** *************** *************** *************** *************** *************** *************** *************** *************** *************** *************** *************** *************** *************** 53364718.329232 *************** 10878814.317285  3768606.619472 -1626145.031649    69314.036097    70120.270805   -11725.198634
     332.893967      197.443577     -985.094809     7390.301434     -987.240702  -113263.944680   404917.459605    94467.352735 -4642255.751016 12334564.291793  6736245.937311 *************** *************** *************** *************** *************** *************** *************** *************** *************** *************** *************** *************** *************** *************** *************** *************** *************** *************** *************** *************** *************** *************** *************** *************** *************** *************** *************** *************** *************** *************** *************** *************** *************** *************** *************** *************** *************** *************** *************** *************** *************** *************** *************** *************** *************** *************** *************** *************** *************** *************** *************** *************** *************** *************** *************** *************** *************** *************** *************** *************** *************** *************** *************** *************** *************** *************** *************** *************** *************** *************** *************** *************** *************** *************** *************** *************** *************** *************** *************** 60062666.049346 *************** 70178610.956548 15681239.475631 ***************  1245128.598096   579157.648367  -190246.275938     1219.626899
     208.072531     1033.649837       72.025721   -14303.079320    57912.891768    11274.373745  -763186.467484  2268295.737329   796715.129370 *************** 51881238.581149 32164998.681517 *************** *************** *************** *************** *************** *************** *************** *************** *************** *************** *************** *************** *************** *************** *************** *************** *************** *************** *************** *************** *************** *************** *************** *************** *************** *************** *************** *************** *************** *************** *************** *************** *************** *************** *************** *************** *************** *************** *************** *************** *************** *************** *************** *************** *************** *************** *************** *************** *************** *************** *************** *************** *************** *************** *************** *************** *************** *************** *************** *************** *************** *************** *************** *************** *************** *************** *************** *************** *************** *************** *************** *************** *************** *************** *************** *************** *************** *************** *************** *************** 47837994.294994 ***************  9818503.745858  3164686.089764 -1649460.843219   130899.118285    74286.714480
     168.661858    -1357.524834     7561.553948     2147.606186  -116227.172510   374872.761234   113439.423822 -4105254.633459 10765662.663523  4143462.648227 *************** *************** *************** *************** *************** *************** *************** *************** *************** *************** *************** *************** *************** *************** *************** *************** *************** *************** *************** *************** *************** *************** *************** *************** *************** *************** *************** *************** *************** *************** *************** *************** *************** *************** *************** *************** *************** *************** *************** *************** *************** *************** *************** *************** *************** *************** *************** *************** *************** *************** *************** *************** *************** *************** *************** *************** *************** *************** *************** *************** *************** *************** *************** *************** *************** *************** *************** *************** *************** *************** *************** *************** *************** *************** *************** *************** *************** *************** *************** *************** *************** *************** *************** 51269475.181057 13198460.070529 -9780795.301671  1325784.411520   524325.416344  -206938.624754
    1168.883381      539.848249   -15896.081199    55662.497962    21957.128388  -717473.488123  2026451.444691   597756.480989 *************** 43812491.841045 17307383.086593 *************** *************** *************** *************** *************** *************** *************** *************** *************** *************** *************** *************** *************** *************** *************** *************** *************** *************** *************** *************** *************** *************** *************** *************** *************** *************** *************** *************** *************** *************** *************** *************** *************** *************** *************** *************** *************** *************** *************** *************** *************** *************** *************** *************** *************** *************** *************** *************** *************** *************** *************** *************** *************** *************** *************** *************** *************** *************** *************** *************** *************** *************** *************** *************** *************** *************** *************** *************** *************** *************** *************** *************** *************** *************** *************** *************** *************** *************** *************** *************** *************** *************** 45634984.675203 ***************  7922232.814926  2728115.995439 -1570593.278495   141380.621620
   -1420.180497     7701.357693     4787.260823  -116545.161249   345801.939077   117920.883353 -3589714.806844  9271956.062571  2306285.564139 *************** *************** 62853455.149321 *************** *************** *************** *************** *************** *************** *************** *************** *************** *************** *************** *************** *************** *************** *************** *************** *************** *************** *************** *************** *************** *************** *************** *************** *************** *************** *************** *************** *************** *************** *************** *************** *************** *************** *************** *************** *************** *************** *************** *************** *************** *************** *************** *************** *************** *************** *************** *************** *************** *************** *************** *************** *************** *************** *************** *************** *************** *************** *************** *************** *************** *************** *************** *************** *************** *************** *************** *************** *************** *************** *************** *************** *************** *************** *************** *************** *************** *************** *************** *************** *************** *************** 34025085.645962 11770249.133508 -8248826.313772  1191327.314264   494579.943985
    -225.829840   -17253.023904    53246.823709    28589.614539  -664288.193195  1798393.735284   412299.069017 *************** 36224755.888171  7299104.264876 *************** *************** *************** *************** *************** *************** *************** *************** *************** *************** *************** *************** *************** *************** *************** *************** *************** *************** *************** *************** *************** *************** *************** *************** *************** *************** *************** *************** *************** *************** *************** *************** *************** *************** *************** *************** *************** *************** *************** *************** *************** *************** *************** *************** *************** *************** *************** *************** *************** *************** *************** *************** *************** *************** *************** *************** *************** *************** *************** *************** *************** *************** *************** *************** *************** *************** *************** *************** *************** *************** *************** *************** *************** *************** *************** *************** *************** *************** *************** *************** *************** *************** *************** *************** 43775763.577721 ***************  5642417.140114  2511479.087555 -1338253.010990