<?xml version="1.0"?>
<VTKFile type="StructuredGrid">
<StructuredGrid WholeExtent="     0    19     0    19     0     0">
<Piece Extent="     0    19     0    19     0     0">
<Points>
<DataArray type="Float32" NumberOfComponents="3"/>
      -0.002500       -0.002500        0.000000       -0.002237       -0.002500        0.000000       -0.001974       -0.002500        0.000000       -0.001711       -0.002500        0.000000       -0.001447       -0.002500        0.000000       -0.001184       -0.002500        0.000000       -0.000921       -0.002500        0.000000       -0.000658       -0.002500        0.000000       -0.000395       -0.002500        0.000000       -0.000132       -0.002500        0.000000        0.000132       -0.002500        0.000000        0.000395       -0.002500        0.000000        0.000658       -0.002500        0.000000        0.000921       -0.002500        0.000000        0.001184       -0.002500        0.000000        0.001447       -0.002500        0.000000        0.001711       -0.002500        0.000000        0.001974       -0.002500        0.000000        0.002237       -0.002500        0.000000        0.002500       -0.002500        0.000000
      -0.002500       -0.002237        0.000000       -0.002237       -0.002237        0.000000       -0.001974       -0.002237        0.000000       -0.001711       -0.002237        0.000000       -0.001447       -0.002237        0.000000       -0.001184       -0.002237        0.000000       -0.000921       -0.002237        0.000000       -0.000658       -0.002237        0.000000       -0.000395       -0.002237        0.000000       -0.000132       -0.002237        0.000000        0.000132       -0.002237        0.000000        0.000395       -0.002237        0.000000        0.000658       -0.002237        0.000000        0.000921       -0.002237        0.000000        0.001184       -0.002237        0.000000        0.001447       -0.002237        0.000000        0.001711       -0.002237        0.000000        0.001974       -0.002237        0.000000        0.002237       -0.002237        0.000000        0.002500       -0.002237        0.000000
      -0.002500       -0.001974        0.000000       -0.002237       -0.001974        0.000000       -0.001974       -0.001974        0.000000       -0.001711       -0.001974        0.000000       -0.001447       -0.001974        0.000000       -0.001184       -0.001974        0.000000       -0.000921       -0.001974        0.000000       -0.000658       -0.001974        0.000000       -0.000395       -0.001974        0.000000       -0.000132       -0.001974        0.000000        0.000132       -0.001974        0.000000        0.000395       -0.001974        0.000000        0.000658       -0.001974        0.000000        0.000921       -0.001974        0.000000        0.001184       -0.001974        0.000000        0.001447       -0.001974        0.000000        0.001711       -0.001974        0.000000        0.001974       -0.001974        0.000000        0.002237       -0.001974        0.000000        0.002500       -0.001974        0.000000
      -0.002500       -0.001711        0.000000       -0.002237       -0.001711        0.000000       -0.001974       -0.001711        0.000000       -0.001711       -0.001711        0.000000       -0.001447       -0.001711        0.000000       -0.001184       -0.001711        0.000000       -0.000921       -0.001711        0.000000       -0.000658       -0.001711        0.000000       -0.000395       -0.001711        0.000000       -0.000132       -0.001711        0.000000        0.000132       -0.001711        0.000000        0.000395       -0.001711        0.000000        0.000658       -0.001711        0.000000        0.000921       -0.001711        0.000000        0.001184       -0.001711        0.000000        0.001447       -0.001711        0.000000        0.001711       -0.001711        0.000000        0.001974       -0.001711        0.000000        0.002237       -0.001711        0.000000        0.002500       -0.001711        0.000000
      -0.002500       -0.001447        0.000000       -0.002237       -0.001447        0.000000       -0.001974       -0.001447        0.000000       -0.001711       -0.001447        0.000000       -0.001447       -0.001447        0.000000       -0.001184       -0.001447        0.000000       -0.000921       -0.001447        0.000000       -0.000658       -0.001447        0.000000       -0.000395       -0.001447        0.000000       -0.000132       -0.001447        0.000000        0.000132       -0.001447        0.000000        0.000395       -0.001447        0.000000        0.000658       -0.001447        0.000000        0.000921       -0.001447        0.000000        0.001184       -0.001447        0.000000        0.001447       -0.001447        0.000000        0.001711       -0.001447        0.000000        0.001974       -0.001447        0.000000        0.002237       -0.001447        0.000000        0.002500       -0.001447        0.000000
      -0.002500       -0.001184        0.000000       -0.002237       -0.001184        0.000000       -0.001974       -0.001184        0.000000       -0.001711       -0.001184        0.000000       -0.001447       -0.001184        0.000000       -0.001184       -0.001184        0.000000       -0.000921       -0.001184        0.000000       -0.000658       -0.001184        0.000000       -0.000395       -0.001184        0.000000       -0.000132       -0.001184        0.000000        0.000132       -0.001184        0.000000        0.000395       -0.001184        0.000000        0.000658       -0.001184        0.000000        0.000921       -0.001184        0.000000        0.001184       -0.001184        0.000000        0.001447       -0.001184        0.000000        0.001711       -0.001184        0.000000        0.001974       -0.001184        0.000000        0.002237       -0.001184        0.000000        0.002500       -0.001184        0.000000
      -0.002500       -0.000921        0.000000       -0.002237       -0.000921        0.000000       -0.001974       -0.000921        0.000000       -0.001711       -0.000921        0.000000       -0.001447       -0.000921        0.000000       -0.001184       -0.000921        0.000000       -0.000921       -0.000921        0.000000       -0.000658       -0.000921        0.000000       -0.000395       -0.000921        0.000000       -0.000132       -0.000921        0.000000        0.000132       -0.000921        0.000000        0.000395       -0.000921        0.000000        0.000658       -0.000921        0.000000        0.000921       -0.000921        0.000000        0.001184       -0.000921        0.000000        0.001447       -0.000921        0.000000        0.001711       -0.000921        0.000000        0.001974       -0.000921        0.000000        0.002237       -0.000921        0.000000        0.002500       -0.000921        0.000000
      -0.002500       -0.000658        0.000000       -0.002237       -0.000658        0.000000       -0.001974       -0.000658        0.000000       -0.001711       -0.000658        0.000000       -0.001447       -0.000658        0.000000       -0.001184       -0.000658        0.000000       -0.000921       -0.000658        0.000000       -0.000658       -0.000658        0.000000       -0.000395       -0.000658        0.000000       -0.000132       -0.000658        0.000000        0.000132       -0.000658        0.000000        0.000395       -0.000658        0.000000        0.000658       -0.000658        0.000000        0.000921       -0.000658        0.000000        0.001184       -0.000658        0.000000        0.001447       -0.000658        0.000000        0.001711       -0.000658        0.000000        0.001974       -0.000658        0.000000        0.002237       -0.000658        0.000000        0.002500       -0.000658        0.000000
      -0.002500       -0.000395        0.000000       -0.002237       -0.000395        0.000000       -0.001974       -0.000395        0.000000       -0.001711       -0.000395        0.000000       -0.001447       -0.000395        0.000000       -0.001184       -0.000395        0.000000       -0.000921       -0.000395        0.000000       -0.000658       -0.000395        0.000000       -0.000395       -0.000395        0.000000       -0.000132       -0.000395        0.000000        0.000132       -0.000395        0.000000        0.000395       -0.000395        0.000000        0.000658       -0.000395        0.000000        0.000921       -0.000395        0.000000        0.001184       -0.000395        0.000000        0.001447       -0.000395        0.000000        0.001711       -0.000395        0.000000        0.001974       -0.000395        0.000000        0.002237       -0.000395        0.000000        0.002500       -0.000395        0.000000
      -0.002500       -0.000132        0.000000       -0.002237       -0.000132        0.000000       -0.001974       -0.000132        0.000000       -0.001711       -0.000132        0.000000       -0.001447       -0.000132        0.000000       -0.001184       -0.000132        0.000000       -0.000921       -0.000132        0.000000       -0.000658       -0.000132        0.000000       -0.000395       -0.000132        0.000000       -0.000132       -0.000132        0.000000        0.000132       -0.000132        0.000000        0.000395       -0.000132        0.000000        0.000658       -0.000132        0.000000        0.000921       -0.000132        0.000000        0.001184       -0.000132        0.000000        0.001447       -0.000132        0.000000        0.001711       -0.000132        0.000000        0.001974       -0.000132        0.000000        0.002237       -0.000132        0.000000        0.002500       -0.000132        0.000000
      -0.002500        0.000132        0.000000       -0.002237        0.000132        0.000000       -0.001974        0.000132        0.000000       -0.001711        0.000132        0.000000       -0.001447        0.000132        0.000000       -0.001184        0.000132        0.000000       -0.000921        0.000132        0.000000       -0.000658        0.000132        0.000000       -0.000395        0.000132        0.000000       -0.000132        0.000132        0.000000        0.000132        0.000132        0.000000        0.000395        0.000132        0.000000        0.000658        0.000132        0.000000        0.000921        0.000132        0.000000        0.001184        0.000132        0.000000        0.001447        0.000132        0.000000        0.001711        0.000132        0.000000        0.001974        0.000132        0.000000        0.002237        0.000132        0.000000        0.002500        0.000132        0.000000
      -0.002500        0.000395        0.000000       -0.002237        0.000395        0.000000       -0.001974        0.000395        0.000000       -0.001711        0.000395        0.000000       -0.001447        0.000395        0.000000       -0.001184        0.000395        0.000000       -0.000921        0.000395        0.000000       -0.000658        0.000395        0.000000       -0.000395        0.000395        0.000000       -0.000132        0.000395        0.000000        0.000132        0.000395        0.000000        0.000395        0.000395        0.000000        0.000658        0.000395        0.000000        0.000921        0.000395        0.000000        0.001184        0.000395        0.000000        0.001447        0.000395        0.000000        0.001711        0.000395        0.000000        0.001974        0.000395        0.000000        0.002237        0.000395        0.000000        0.002500        0.000395        0.000000
      -0.002500        0.000658        0.000000       -0.002237        0.000658        0.000000       -0.001974        0.000658        0.000000       -0.001711        0.000658        0.000000       -0.001447        0.000658        0.000000       -0.001184        0.000658        0.000000       -0.000921        0.000658        0.000000       -0.000658        0.000658        0.000000       -0.000395        0.000658        0.000000       -0.000132        0.000658        0.000000        0.000132        0.000658        0.000000        0.000395        0.000658        0.000000        0.000658        0.000658        0.000000        0.000921        0.000658        0.000000        0.001184        0.000658        0.000000        0.001447        0.000658        0.000000        0.001711        0.000658        0.000000        0.001974        0.000658        0.000000        0.002237        0.000658        0.000000        0.002500        0.000658        0.000000
      -0.002500        0.000921        0.000000       -0.002237        0.000921        0.000000       -0.001974        0.000921        0.000000       -0.001711        0.000921        0.000000       -0.001447        0.000921        0.000000       -0.001184        0.000921        0.000000       -0.000921        0.000921        0.000000       -0.000658        0.000921        0.000000       -0.000395        0.000921        0.000000       -0.000132        0.000921        0.000000        0.000132        0.000921        0.000000        0.000395        0.000921        0.000000        0.000658        0.000921        0.000000        0.000921        0.000921        0.000000        0.001184        0.000921        0.000000        0.001447        0.000921        0.000000        0.001711        0.000921        0.000000        0.001974        0.000921        0.000000        0.002237        0.000921        0.000000        0.002500        0.000921        0.000000
      -0.002500        0.001184        0.000000       -0.002237        0.001184        0.000000       -0.001974        0.001184        0.000000       -0.001711        0.001184        0.000000       -0.001447        0.001184        0.000000       -0.001184        0.001184        0.000000       -0.000921        0.001184        0.000000       -0.000658        0.001184        0.000000       -0.000395        0.001184        0.000000       -0.000132        0.001184        0.000000        0.000132        0.001184        0.000000        0.000395        0.001184        0.000000        0.000658        0.001184        0.000000        0.000921        0.001184        0.000000        0.001184        0.001184        0.000000        0.001447        0.001184        0.000000        0.001711        0.001184        0.000000        0.001974        0.001184        0.000000        0.002237        0.001184        0.000000        0.002500        0.001184        0.000000
      -0.002500        0.001447        0.000000       -0.002237        0.001447        0.000000       -0.001974        0.001447        0.000000       -0.001711        0.001447        0.000000       -0.001447        0.001447        0.000000       -0.001184        0.001447        0.000000       -0.000921        0.001447        0.000000       -0.000658        0.001447        0.000000       -0.000395        0.001447        0.000000       -0.000132        0.001447        0.000000        0.000132        0.001447        0.000000        0.000395        0.001447        0.000000        0.000658        0.001447        0.000000        0.000921        0.001447        0.000000        0.001184        0.001447        0.000000        0.001447        0.001447        0.000000        0.001711        0.001447        0.000000        0.001974        0.001447        0.000000        0.002237        0.001447        0.000000        0.002500        0.001447        0.000000
      -0.002500        0.001711        0.000000       -0.002237        0.001711        0.000000       -0.001974        0.001711        0.000000       -0.001711        0.001711        0.000000       -0.001447        0.001711        0.000000       -0.001184        0.001711        0.000000       -0.000921        0.001711        0.000000       -0.000658        0.001711        0.000000       -0.000395        0.001711        0.000000       -0.000132        0.001711        0.000000        0.000132        0.001711        0.000000        0.000395        0.001711        0.000000        0.000658        0.001711        0.000000        0.000921        0.001711        0.000000        0.001184        0.001711        0.000000        0.001447        0.001711        0.000000        0.001711        0.001711        0.000000        0.001974        0.001711        0.000000        0.002237        0.001711        0.000000        0.002500        0.001711        0.000000
      -0.002500        0.001974        0.000000       -0.002237        0.001974        0.000000       -0.001974        0.001974        0.000000       -0.001711        0.001974        0.000000       -0.001447        0.001974        0.000000       -0.001184        0.001974        0.000000       -0.000921        0.001974        0.000000       -0.000658        0.001974        0.000000       -0.000395        0.001974        0.000000       -0.000132        0.001974        0.000000        0.000132        0.001974        0.000000        0.000395        0.001974        0.000000        0.000658        0.001974        0.000000        0.000921        0.001974        0.000000        0.001184        0.001974        0.000000        0.001447        0.001974        0.000000        0.001711        0.001974        0.000000        0.001974        0.001974        0.000000        0.002237        0.001974        0.000000        0.002500        0.001974        0.000000
      -0.002500        0.002237        0.000000       -0.002237        0.002237        0.000000       -0.001974        0.002237        0.000000       -0.001711        0.002237        0.000000       -0.001447        0.002237        0.000000       -0.001184        0.002237        0.000000       -0.000921        0.002237        0.000000       -0.000658        0.002237        0.000000       -0.000395        0.002237        0.000000       -0.000132        0.002237        0.000000        0.000132        0.002237        0.000000        0.000395        0.002237        0.000000        0.000658        0.002237        0.000000        0.000921        0.002237        0.000000        0.001184        0.002237        0.000000        0.001447        0.002237        0.000000        0.001711        0.002237        0.000000        0.001974        0.002237        0.000000        0.002237        0.002237        0.000000        0.002500        0.002237        0.000000
      -0.002500        0.002500        0.000000       -0.002237        0.002500        0.000000       -0.001974        0.002500        0.000000       -0.001711        0.002500        0.000000       -0.001447        0.002500        0.000000       -0.001184        0.002500        0.000000       -0.000921        0.002500        0.000000       -0.000658        0.002500        0.000000       -0.000395        0.002500        0.000000       -0.000132        0.002500        0.000000        0.000132        0.002500        0.000000        0.000395        0.002500        0.000000        0.000658        0.002500        0.000000        0.000921        0.002500        0.000000        0.001184        0.002500        0.000000        0.001447        0.002500        0.000000        0.001711        0.002500        0.000000        0.001974        0.002500        0.000000        0.002237        0.002500        0.000000        0.002500        0.002500        0.000000
</Points>
<CellData Scalars="Température, U, V">
<DataArray type="Float32" Name="Temp, K"/>
   15426.065666  -101220.890706   327961.019172  -855921.896177  1869395.277040 -3477372.211222  5590971.578135 -7835576.915449  9632356.272764 ***************  9925170.996256 -8319239.403850  6116498.576123 -3919933.598131  2171305.463286 -1024456.887681   404380.118163  -128337.114158    31604.638424
   15426.065666  -101220.890706   327961.019172  -855921.896177  1869395.277040 -3477372.211222  5590971.578135 -7835576.915449  9632356.272764 ***************  9925170.996256 -8319239.403850  6116498.576123 -3919933.598131  2171305.463286 -1024456.887681   404380.118163  -128337.114158    31604.638424
   15426.065666  -101220.890706   327961.019172  -855921.896177  1869395.277040 -3477372.211222  5590971.578135 -7835576.915449  9632356.272764 ***************  9925170.996256 -8319239.403850  6116498.576123 -3919933.598131  2171305.463286 -1024456.887681   404380.118163  -128337.114158    31604.638424
   15426.065666  -101220.890706   327961.019172  -855921.896177  1869395.277040 -3477372.211222  5590971.578135 -7835576.915449  9632356.272764 ***************  9925170.996256 -8319239.403850  6116498.576123 -3919933.598131  2171305.463286 -1024456.887681   404380.118163  -128337.114158    31604.638424
   15426.065666  -101220.890706   327961.019172  -855921.896177  1869395.277040 -3477372.211222  5590971.578135 -7835576.915449  9632356.272764 ***************  9925170.996256 -8319239.403850  6116498.576123 -3919933.598131  2171305.463286 -1024456.887681   404380.118163  -128337.114158    31604.638424
   15426.065666  -101220.890706   327961.019172  -855921.896177  1869395.277040 -3477372.211222  5590971.578135 -7835576.915449  9632356.272764 ***************  9925170.996256 -8319239.403850  6116498.576123 -3919933.598131  2171305.463286 -1024456.887681   404380.118163  -128337.114158    31604.638424
   15426.065666  -101220.890706   327961.019172  -855921.896177  1869395.277040 -3477372.211222  5590971.578135 -7835576.915449  9632356.272764 ***************  9925170.996256 -8319239.403850  6116498.576123 -3919933.598131  2171305.463286 -1024456.887681   404380.118163  -128337.114158    31604.638424
   15426.065666  -101220.890706   327961.019172  -855921.896177  1869395.277040 -3477372.211222  5590971.578135 -7835576.915449  9632356.272764 ***************  9925170.996256 -8319239.403850  6116498.576123 -3919933.598131  2171305.463286 -1024456.887681   404380.118163  -128337.114158    31604.638424
   15426.065666  -101220.890706   327961.019172  -855921.896177  1869395.277040 -3477372.211222  5590971.578135 -7835576.915449  9632356.272764 ***************  9925170.996256 -8319239.403850  6116498.576123 -3919933.598131  2171305.463286 -1024456.887681   404380.118163  -128337.114158    31604.638424
   15426.065666  -101220.890706   327961.019172  -855921.896177  1869395.277040 -3477372.211222  5590971.578135 -7835576.915449  9632356.272764 ***************  9925170.996256 -8319239.403850  6116498.576123 -3919933.598131  2171305.463286 -1024456.887681   404380.118163  -128337.114158    31604.638424
   15426.065666  -101220.890706   327961.019172  -855921.896177  1869395.277040 -3477372.211222  5590971.578135 -7835576.915449  9632356.272764 ***************  9925170.996256 -8319239.403850  6116498.576123 -3919933.598131  2171305.463286 -1024456.887681   404380.118163  -128337.114158    31604.638424
   15426.065666  -101220.890706   327961.019172  -855921.896177  1869395.277040 -3477372.211222  5590971.578135 -7835576.915449  9632356.272764 ***************  9925170.996256 -8319239.403850  6116498.576123 -3919933.598131  2171305.463286 -1024456.887681   404380.118163  -128337.114158    31604.638424
   15426.065666  -101220.890706   327961.019172  -855921.896177  1869395.277040 -3477372.211222  5590971.578135 -7835576.915449  9632356.272764 ***************  9925170.996256 -8319239.403850  6116498.576123 -3919933.598131  2171305.463286 -1024456.887681   404380.118163  -128337.114158    31604.638424
   15426.065666  -101220.890706   327961.019172  -855921.896177  1869395.277040 -3477372.211222  5590971.578135 -7835576.915449  9632356.272764 ***************  9925170.996256 -8319239.403850  6116498.576123 -3919933.598131  2171305.463286 -1024456.887681   404380.118163  -128337.114158    31604.638424
   15426.065666  -101220.890706   327961.019172  -855921.896177  1869395.277040 -3477372.211222  5590971.578135 -7835576.915449  9632356.272764 ***************  9925170.996256 -8319239.403850  6116498.576123 -3919933.598131  2171305.463286 -1024456.887681   404380.118163  -128337.114158    31604.638424
   15426.065666  -101220.890706   327961.019172  -855921.896177  1869395.277040 -3477372.211222  5590971.578135 -7835576.915449  9632356.272764 ***************  9925170.996256 -8319239.403850  6116498.576123 -3919933.598131  2171305.463286 -1024456.887681   404380.118163  -128337.114158    31604.638424
   15426.065666  -101220.890706   327961.019172  -855921.896177  1869395.277040 -3477372.211222  5590971.578135 -7835576.915449  9632356.272764 ***************  9925170.996256 -8319239.403850  6116498.576123 -3919933.598131  2171305.463286 -1024456.887681   404380.118163  -128337.114158    31604.638424
   15426.065666  -101220.890706   327961.019172  -855921.896177  1869395.277040 -3477372.211222  5590971.578135 -7835576.915449  9632356.272764 ***************  9925170.996256 -8319239.403850  6116498.576123 -3919933.598131  2171305.463286 -1024456.887681   404380.118163  -126440.208292    29707.732557
   58936.074437  -270037.749692   741807.181111 -1689393.773750  3269655.000451 -5448690.152154  7901315.267441 *************** 11189593.598041 ***************  9484162.569060 -7177916.635839  4738436.133690 -2701973.985142  1315899.166177  -534588.872810   177571.239634   -44276.937261     8833.372671
<DataArray type="Float32" Name="Vitesse u, m/s"/>
     -10.000000      -10.000000      -10.000000      -10.000000      -10.000000      -10.000000      -10.000000      -10.000000      -10.000000      -10.000000      -10.000000      -10.000000      -10.000000      -10.000000      -10.000000      -10.000000      -10.000000      -10.000000      -10.000000
     -10.000000      -10.000000      -10.000000      -10.000000      -10.000000      -10.000000      -10.000000      -10.000000      -10.000000      -10.000000      -10.000000      -10.000000      -10.000000      -10.000000      -10.000000      -10.000000      -10.000000      -10.000000      -10.000000
     -10.000000      -10.000000      -10.000000      -10.000000      -10.000000      -10.000000      -10.000000      -10.000000      -10.000000      -10.000000      -10.000000      -10.000000      -10.000000      -10.000000      -10.000000      -10.000000      -10.000000      -10.000000      -10.000000
     -10.000000      -10.000000      -10.000000      -10.000000      -10.000000      -10.000000      -10.000000      -10.000000      -10.000000      -10.000000      -10.000000      -10.000000      -10.000000      -10.000000      -10.000000      -10.000000      -10.000000      -10.000000      -10.000000
     -10.000000      -10.000000      -10.000000      -10.000000      -10.000000      -10.000000      -10.000000      -10.000000      -10.000000      -10.000000      -10.000000      -10.000000      -10.000000      -10.000000      -10.000000      -10.000000      -10.000000      -10.000000      -10.000000
     -10.000000      -10.000000      -10.000000      -10.000000      -10.000000      -10.000000      -10.000000      -10.000000      -10.000000      -10.000000      -10.000000      -10.000000      -10.000000      -10.000000      -10.000000      -10.000000      -10.000000      -10.000000      -10.000000
     -10.000000      -10.000000      -10.000000      -10.000000      -10.000000      -10.000000      -10.000000      -10.000000      -10.000000      -10.000000      -10.000000      -10.000000      -10.000000      -10.000000      -10.000000      -10.000000      -10.000000      -10.000000      -10.000000
     -10.000000      -10.000000      -10.000000      -10.000000      -10.000000      -10.000000      -10.000000      -10.000000      -10.000000      -10.000000      -10.000000      -10.000000      -10.000000      -10.000000      -10.000000      -10.000000      -10.000000      -10.000000      -10.000000
     -10.000000      -10.000000      -10.000000      -10.000000      -10.000000      -10.000000      -10.000000      -10.000000      -10.000000      -10.000000      -10.000000      -10.000000      -10.000000      -10.000000      -10.000000      -10.000000      -10.000000      -10.000000      -10.000000
     -10.000000      -10.000000      -10.000000      -10.000000      -10.000000      -10.000000      -10.000000      -10.000000      -10.000000      -10.000000      -10.000000      -10.000000      -10.000000      -10.000000      -10.000000      -10.000000      -10.000000      -10.000000      -10.000000
     -10.000000      -10.000000      -10.000000      -10.000000      -10.000000      -10.000000      -10.000000      -10.000000      -10.000000      -10.000000      -10.000000      -10.000000      -10.000000      -10.000000      -10.000000      -10.000000      -10.000000      -10.000000      -10.000000
     -10.000000      -10.000000      -10.000000      -10.000000      -10.000000      -10.000000      -10.000000      -10.000000      -10.000000      -10.000000      -10.000000      -10.000000      -10.000000      -10.000000      -10.000000      -10.000000      -10.000000      -10.000000      -10.000000
     -10.000000      -10.000000      -10.000000      -10.000000      -10.000000      -10.000000      -10.000000      -10.000000      -10.000000      -10.000000      -10.000000      -10.000000      -10.000000      -10.000000      -10.000000      -10.000000      -10.000000      -10.000000      -10.000000
     -10.000000      -10.000000      -10.000000      -10.000000      -10.000000      -10.000000      -10.000000      -10.000000      -10.000000      -10.000000      -10.000000      -10.000000      -10.000000      -10.000000      -10.000000      -10.000000      -10.000000      -10.000000      -10.000000
     -10.000000      -10.000000      -10.000000      -10.000000      -10.000000      -10.000000      -10.000000      -10.000000      -10.000000      -10.000000      -10.000000      -10.000000      -10.000000      -10.000000      -10.000000      -10.000000      -10.000000      -10.000000      -10.000000