<?xml version="1.0"?>
<VTKFile type="StructuredGrid">
<StructuredGrid WholeExtent="     0    99     0    99     0     0">
<Piece Extent="     0    99     0    99     0     0">
<Points>
<DataArray type="Float32" NumberOfComponents="3"/>
      -0.002500       -0.002500        0.000000       -0.002449       -0.002500        0.000000       -0.002399       -0.002500        0.000000       -0.002348       -0.002500        0.000000       -0.002298       -0.002500        0.000000       -0.002247       -0.002500        0.000000       -0.002197       -0.002500        0.000000       -0.002146       -0.002500        0.000000       -0.002096       -0.002500        0.000000       -0.002045       -0.002500        0.000000       -0.001995       -0.002500        0.000000       -0.001944       -0.002500        0.000000       -0.001894       -0.002500        0.000000       -0.001843       -0.002500        0.000000       -0.001793       -0.002500        0.000000       -0.001742       -0.002500        0.000000       -0.001692       -0.002500        0.000000       -0.001641       -0.002500        0.000000       -0.001591       -0.002500        0.000000       -0.001540       -0.002500        0.000000       -0.001490       -0.002500        0.000000       -0.001439       -0.002500        0.000000       -0.001389       -0.002500        0.000000       -0.001338       -0.002500        0.000000       -0.001288       -0.002500        0.000000       -0.001237       -0.002500        0.000000       -0.001187       -0.002500        0.000000       -0.001136       -0.002500        0.000000       -0.001086       -0.002500        0.000000       -0.001035       -0.002500        0.000000       -0.000985       -0.002500        0.000000       -0.000934       -0.002500        0.000000       -0.000884       -0.002500        0.000000       -0.000833       -0.002500        0.000000       -0.000783       -0.002500        0.000000       -0.000732       -0.002500        0.000000       -0.000682       -0.002500        0.000000       -0.000631       -0.002500        0.000000       -0.000581       -0.002500        0.000000       -0.000530       -0.002500        0.000000       -0.000480       -0.002500        0.000000       -0.000429       -0.002500        0.000000       -0.000379       -0.002500        0.000000       -0.000328       -0.002500        0.000000       -0.000278       -0.002500        0.000000       -0.000227       -0.002500        0.000000       -0.000177       -0.002500        0.000000       -0.000126       -0.002500        0.000000       -0.000076       -0.002500        0.000000       -0.000025       -0.002500        0.000000        0.000025       -0.002500        0.000000        0.000076       -0.002500        0.000000        0.000126       -0.002500        0.000000        0.000177       -0.002500        0.000000        0.000227       -0.002500        0.000000        0.000278       -0.002500        0.000000        0.000328       -0.002500        0.000000        0.000379       -0.002500        0.000000        0.000429       -0.002500        0.000000        0.000480       -0.002500        0.000000        0.000530       -0.002500        0.000000        0.000581       -0.002500        0.000000        0.000631       -0.002500        0.000000        0.000682       -0.002500        0.000000        0.000732       -0.002500        0.000000        0.000783       -0.002500        0.000000        0.000833       -0.002500        0.000000        0.000884       -0.002500        0.000000        0.000934       -0.002500        0.000000        0.000985       -0.002500        0.000000        0.001035       -0.002500        0.000000        0.001086       -0.002500        0.000000        0.001136       -0.002500        0.000000        0.001187       -0.002500        0.000000        0.001237       -0.002500        0.000000        0.001288       -0.002500        0.000000        0.001338       -0.002500        0.000000        0.001389       -0.002500        0.000000        0.001439       -0.002500        0.000000        0.001490       -0.002500        0.000000        0.001540       -0.002500        0.000000        0.001591       -0.002500        0.000000        0.001641       -0.002500        0.000000        0.001692       -0.002500        0.000000        0.001742       -0.002500        0.000000        0.001793       -0.002500        0.000000        0.001843       -0.002500        0.000000        0.001894       -0.002500        0.000000        0.001944       -0.002500        0.000000        0.001995       -0.002500        0.000000        0.002045       -0.002500        0.000000        0.002096       -0.002500        0.000000        0.002146       -0.002500        0.000000        0.002197       -0.002500        0.000000        0.002247       -0.002500        0.000000        0.002298       -0.002500        0.000000        0.002348       -0.002500        0.000000        0.002399       -0.002500        0.000000        0.002449       -0.002500        0.000000        0.002500       -0.002500        0.000000
      -0.002500       -0.002449        0.000000       -0.002449       -0.002449        0.000000       -0.002399       -0.002449        0.000000       -0.002348       -0.002449        0.000000       -0.002298       -0.002449        0.000000       -0.002247       -0.002449        0.000000       -0.002197       -0.002449        0.000000       -0.002146       -0.002449        0.000000       -0.002096       -0.002449        0.000000       -0.002045       -0.002449        0.000000       -0.001995       -0.002449        0.000000       -0.001944       -0.002449        0.000000       -0.001894       -0.002449        0.000000       -0.001843       -0.002449        0.000000       -0.001793       -0.002449        0.000000       -0.001742       -0.002449        0.000000       -0.001692       -0.002449        0.000000       -0.001641       -0.002449        0.000000       -0.001591       -0.002449        0.000000       -0.001540       -0.002449        0.000000       -0.001490       -0.002449        0.000000       -0.001439       -0.002449        0.000000       -0.001389       -0.002449        0.000000       -0.001338       -0.002449        0.000000       -0.001288       -0.002449        0.000000       -0.001237       -0.002449        0.000000       -0.001187       -0.002449        0.000000       -0.001136       -0.002449        0.000000       -0.001086       -0.002449        0.000000       -0.001035       -0.002449        0.000000       -0.000985       -0.002449        0.000000       -0.000934       -0.002449        0.000000       -0.000884       -0.002449        0.000000       -0.000833       -0.002449        0.000000       -0.000783       -0.002449        0.000000       -0.000732       -0.002449        0.000000       -0.000682       -0.002449        0.000000       -0.000631       -0.002449        0.000000       -0.000581       -0.002449        0.000000       -0.000530       -0.002449        0.000000       -0.000480       -0.002449        0.000000       -0.000429       -0.002449        0.000000       -0.000379       -0.002449        0.000000       -0.000328       -0.002449        0.000000       -0.000278       -0.002449        0.000000       -0.000227       -0.002449        0.000000       -0.000177       -0.002449        0.000000       -0.000126       -0.002449        0.000000       -0.000076       -0.002449        0.000000       -0.000025       -0.002449        0.000000        0.000025       -0.002449        0.000000        0.000076       -0.002449        0.000000        0.000126       -0.002449        0.000000        0.000177       -0.002449        0.000000        0.000227       -0.002449        0.000000        0.000278       -0.002449        0.000000        0.000328       -0.002449        0.000000        0.000379       -0.002449        0.000000        0.000429       -0.002449        0.000000        0.000480       -0.002449        0.000000        0.000530       -0.002449        0.000000        0.000581       -0.002449        0.000000        0.000631       -0.002449        0.000000        0.000682       -0.002449        0.000000        0.000732       -0.002449        0.000000        0.000783       -0.002449        0.000000        0.000833       -0.002449        0.000000        0.000884       -0.002449        0.000000        0.000934       -0.002449        0.000000        0.000985       -0.002449        0.000000        0.001035       -0.002449        0.000000        0.001086       -0.002449        0.000000        0.001136       -0.002449        0.000000        0.001187       -0.002449        0.000000        0.001237       -0.002449        0.000000        0.001288       -0.002449        0.000000        0.001338       -0.002449        0.000000        0.001389       -0.002449        0.000000        0.001439       -0.002449        0.000000        0.001490       -0.002449        0.000000        0.001540       -0.002449        0.000000        0.001591       -0.002449        0.000000        0.001641       -0.002449        0.000000        0.001692       -0.002449        0.000000        0.001742       -0.002449        0.000000        0.001793       -0.002449        0.000000        0.001843       -0.002449        0.000000        0.001894       -0.002449        0.000000        0.001944       -0.002449        0.000000        0.001995       -0.002449        0.000000        0.002045       -0.002449        0.000000        0.002096       -0.002449        0.000000        0.002146       -0.002449        0.000000        0.002197       -0.002449        0.000000        0.002247       -0.002449        0.000000        0.002298       -0.002449        0.000000        0.002348       -0.002449        0.000000        0.002399       -0.002449        0.000000        0.002449       -0.002449        0.000000        0.002500       -0.002449        0.000000
[...]
<CellData Scalars="Temprature, U, V">
<DataArray type="Float32" Name="Temp, K"/>
     292.710463      294.669867      297.590231      291.039610      252.842449      217.136160      292.527896      334.561270      -51.635116     -246.328657      985.370185     1528.285295    -2007.516628    -3398.678299     6203.599936     7621.347791   -21550.840111    -8409.378187   104246.056418     6360.277823  -513771.710864  -269064.852596  1968692.677207  2988703.943971 -3163463.358867 *************** *************** 11811928.388121 43370357.951845 54446956.873860 33486314.012458 -2562950.064222 *************** *************** *************** *************** *************** *************** *************** *************** *************** *************** *************** *************** *************** *************** *************** *************** *************** *************** *************** *************** *************** *************** *************** *************** *************** *************** *************** *************** *************** *************** *************** *************** *************** 15727121.538535 -2895429.300425 *************** *************** *************** -3536616.024512  6343178.455029  5971780.979493 -3477125.374338 -5667514.139107  5453213.746487 10614547.470888 -2239150.475712 *************** -1469088.655458  9594133.752545  2867040.973686 -6119488.875978 -2379948.313142  3275693.371069  1337498.953271 -1501097.269330  -553387.934234   586854.704102   171981.967106  -191298.368906   -39833.877738    51224.194103     7576.238870   -10721.812439    -1045.494737     2290.555566      635.257243     -400.648913
     291.284479      292.955834      299.251156      308.664835      279.333549      168.063541      150.629782      413.651385      260.402334     -802.456003     -332.013352     2789.347712     1368.484269    -7243.388491    -2978.559797    20460.454712      430.750430   -68835.154901    42250.390482   294476.078156  -209588.178580 -1378216.911609    47190.856343  5304340.620444  5595871.690445 -9360129.709480 *************** *************** 20388696.794889 74909971.682613 97597123.027039 74736750.937244 32578314.660506 19076333.210661  6463779.726477 *************** *************** *************** *************** *************** *************** *************** *************** *************** *************** *************** *************** *************** *************** *************** *************** *************** *************** *************** *************** *************** *************** *************** *************** *************** *************** *************** *************** *************** *************** 26590310.856320 *************** *************** *************** -2829243.215533 11679748.987612 14772765.322819  1938921.988771 -8838150.297780   731594.710005 14733854.888728  4683249.340516 *************** *************** 11714475.456611 10954172.009045 -6914862.483886 -8246679.601145  3577225.261255  4790703.817500 -1730295.958601 -2213826.726532   786579.943879   816421.180077  -317722.101132  -237901.625053   106693.092250    54973.640891   -28012.575887   -10230.070742     6183.077463     2382.679341     -835.964920     -748.068468
     290.906704      291.955014      291.212195      298.836890      336.683480      319.155214       84.008604       21.160680      717.721245      660.482260    -1707.608690    -1515.045209     5191.766157     4714.856319   -14435.254017   -11230.341651    48922.255049    17630.731075  -197817.808224   -16647.074172   841212.676415   272907.519213 -3124609.919944 -3281652.464402  7173230.814618 18052820.515047  4622260.185276 *************** *************** *************** 16763856.586060 78928329.182142 *************** 80416588.971846 21926036.254275 *************** *************** *************** *************** *************** *************** *************** *************** *************** *************** *************** *************** *************** *************** *************** *************** *************** *************** *************** *************** *************** *************** *************** *************** *************** *************** *************** *************** 44518150.030305 *************** -9563323.167838  4340484.893169 12896314.763676 22583396.171119 27540291.501367 18644856.593311 -1021286.146875 ***************   720229.139335 13597357.736254   638428.394734 *************** -7370645.604201 17138479.768245 11086646.581147 *************** ***************  7223561.800095  6743899.013034 -3895813.745337 -3495701.652874  1918067.401641  1418598.673799  -834445.134189  -442984.038514   304592.834861   103349.973898   -88475.468883   -17322.490134    20321.565353     3008.146678    -3191.665342     -799.924309     -169.314652
     289.902650      291.997237      295.425130      286.211661      283.431560      385.722137      426.853183      -76.196048     -320.117104     1240.636569     1668.185509    -3108.795193    -4533.562250     9033.732500    13999.444720   -28956.335490   -39697.280493   115738.898278   114050.016631  -480705.828929  -440247.594585  1756442.550816  2335115.935737 -4472341.624549 ***************  1499033.184657 30582857.553824 38064944.553337 -6224695.583100 *************** *************** *************** *************** 11672944.916620 *************** *************** *************** *************** *************** *************** *************** *************** *************** *************** *************** *************** *************** *************** *************** *************** *************** *************** *************** *************** *************** *************** *************** *************** *************** *************** *************** *************** *************** *************** ***************  -807087.703963 29095203.594933 30215768.450120 22879149.158173  5281600.744430 *************** ***************   -81454.794346 12798029.723108 -1858045.701561 *************** -3140306.599856 21423500.533583  9185337.934153 *************** *************** 12156393.414067  8446870.723168 -7273271.089583 -4951700.014043  3897537.000804  2217019.847767 -1837561.056411  -739732.356380   731237.403296   170017.859037  -233655.307772   -20638.205079    57853.001051      -50.040871   -10093.338145      244.080526      688.060695     -505.047773
     289.338370      289.008641      293.637148      307.420412      277.092422      227.062242      465.909272      685.190683     -340.697767    -1093.478935     1973.765640     3955.523242    -4775.772527   -12008.995932    14190.648315    40121.073460   -54478.159875  -132696.484187   235420.699350   463001.518109  -887024.043428 -1808882.259833  2398096.502816  7110674.099350 -1936388.531403 *************** *************** 25690357.540945 73011153.470466 64091831.790377 -9279382.691152 *************** *************** *************** *************** 51206629.385415 *************** *************** *************** *************** *************** *************** *************** *************** *************** *************** *************** *************** *************** *************** *************** *************** *************** *************** *************** *************** *************** *************** *************** *************** *************** *************** 55272147.460768 *************** 31863143.462176  4593739.278858  -411045.700065 -9877982.293269 *************** *************** ***************  4255676.800859 15466598.456512 -2078742.543010 ***************   825152.109490 23461217.896179  5554529.003857 *************** -9760490.268200 17861806.435198  9366157.875383 *************** -6306384.084197  6933298.746120  3135940.583824 -3552241.458409 -1118263.533003  1543188.925343   245232.282360  -542304.724612    -6443.488900   146734.897095   -15744.762856   -27957.144210     5661.244723     2872.759654    -1534.346642     -535.316987
     289.270100      290.640486      285.444985      293.663873      341.994744      265.363224       77.470417      584.101226     1231.915495     -683.101563    -2655.020971     2540.554132     8896.745123    -5086.967311   -30331.676134    16417.748749   110165.695834   -79612.079358  -390909.340350   345062.675517  1379139.907734 -1005915.935886 -4758772.490259   837550.075093 14081149.546285  9293208.159564 *************** *************** *************** 68275674.968005 *************** *************** 34055782.537672 *************** *************** *************** *************** *************** *************** *************** *************** *************** *************** *************** *************** *************** *************** *************** *************** *************** *************** *************** *************** *************** *************** *************** *************** *************** *************** *************** *************** *************** *************** *************** 37538386.601476 *************** *************** *************** *************** -7046162.914974 17852149.978306 20840088.773040 -2590814.189386 ***************  3038445.442554 23215133.024025  1307175.315950 *************** -7091864.138458 23438316.801987  9060462.712152 *************** -7203183.862072 11063728.855229  4025811.644340 -6170229.568545 -1540014.665262  2928557.557355   308505.029251 -1132843.262699    50054.991734   337798.557547   -62966.832040   -70562.303481    23852.298002     8124.389203    -5634.642776     -557.650546      255.522172
     287.442327      290.779271      295.941653      273.095622      285.702341      429.199807      256.562739     -251.027135      725.552315     2237.552870     -840.630936    -5489.911738     1299.314773    19159.655737     2249.896399   -72916.181265    -4217.333650   276513.540339   -34826.115597  -973932.621998   158641.594550  3177981.341711   271709.515355 -9112970.905406 -5869584.177845 18814578.331713 30532522.561431 -8588483.479143 *************** *************** -4608081.189410 95195872.339948 *************** *************** 85186237.382582 13393347.503925 *************** *************** *************** *************** *************** *************** *************** *************** *************** *************** *************** *************** *************** *************** *************** *************** *************** *************** *************** *************** *************** *************** *************** *************** *************** *************** *************** *************** *************** *************** -8791215.024532  3759168.443101 22736969.192151 33894352.524255 21257113.504364 -8438903.933629 ***************  3802503.455862 22085419.948989 -2154929.256780 *************** -3399708.403816 27864383.254208  7399805.274167 *************** -7318539.078524 16066712.241266  4690429.934426 -9765625.118653 -1941431.870477  5065771.497084   334068.884649 -2158740.611552   182067.613322   713760.651281  -173755.978908  -165531.892418    72738.893129    20679.046872   -18659.241906       61.747122     2261.779567     -844.996566
     287.277822      284.469410      295.212149      312.026448      237.199487      257.640706      622.683007      258.053126     -849.552740      791.492312     3748.595543      211.059283    -9948.875474    -6956.240218    38850.664973    36088.806054  -160851.050062  -108697.797029   607490.637292   282038.590368 -2008447.667560  -983110.455346  5717602.411338  4653393.575884 *************** *************** 12878294.530589 53114186.734642 34145326.742672 *************** *************** *************** *************** 50035581.417494 98364636.374005 44841680.480536 *************** *************** *************** *************** *************** *************** *************** *************** *************** *************** *************** *************** *************** *************** *************** *************** *************** *************** *************** *************** *************** *************** *************** *************** *************** *************** *************** *************** 31229590.640277 35577882.271392 36341613.151536 40956117.317365 33329483.823791  7330705.313582 *************** ***************  5917309.859100 22087720.948890 -4180581.219090 ***************   273202.120153 30425411.054287  4693109.534626 *************** -6501495.196203 21442484.288653  4946907.703630 *************** -2251678.936597  8059541.585444   304886.003834 -3784542.807364   419073.671345  1393291.074689  -390994.404429  -363668.616034   184198.907079    51138.371213   -54063.721563     2212.742537     8726.476067    -2954.051777     -942.591945
     288.745053      288.655648      274.969435      307.705229      352.712675      145.941680      198.977718      989.872718      264.629639    -1660.897048      423.265584     5137.389375     5484.342460   -15032.150595   -35665.259697    70658.551033   141883.643069  -310746.120164  -435238.122460  1126587.715808  1268209.000144 -3340945.548436 -4047092.923412  7730782.404546 13385055.372285 *************** *************** *************** 57866419.954664 86155254.324366 22072305.030773 *************** *************** *************** *************** *************** 52452532.948282 *************** *************** *************** *************** *************** *************** *************** *************** *************** *************** *************** *************** *************** *************** *************** *************** *************** *************** *************** *************** *************** *************** *************** *************** *************** *************** 19098253.418752 11733244.835856 21537788.480214 19326878.282063  3525310.652201 *************** *************** *************** 12895892.729510 23777453.744409 -5797040.927115 ***************  3104305.222861 31092473.494605  1599146.212722 *************** -4867853.239422 26507047.606264  4698931.520085 *************** -2420331.206589 11871417.095339   231562.746493 -6139476.643270   764583.167446  2522130.119200  -755282.660326  -748656.887493   404510.024262   124250.969248  -138109.814635     5771.651068    27666.733829    -9279.288900    -2678.754645     1464.816300
     285.021811      294.118435      291.427256      247.198394      343.830021      435.585563      -58.214499      140.781299     1529.400514      212.291736    -1989.348493    -1374.663880     3603.468069    22174.883599   -14655.191685  -113385.057931   104884.801743   407257.154629  -495310.313191 -1217983.632780  1677863.403078  3452075.629281 -4197118.317866 -9741091.012458  6515502.127324 25235123.381524  2625959.179242 *************** *************** 26332498.156900 *************** *************** 30012443.384709 *************** *************** *************** 39391152.562852 *************** *************** *************** *************** *************** *************** *************** *************** *************** *************** *************** *************** *************** *************** *************** *************** *************** *************** *************** *************** *************** *************** *************** 78031352.368577 *************** *************** *************** *************** *************** *************** *************** *************** -6179267.938412 24771941.412060 24565705.863508 -9433004.812321 ***************  5196723.726829 30566418.510523 -1217922.277509 *************** -2772312.067943 30586138.472793  3985951.293825 *************** -2442690.423301 16274278.469611   166568.794692 -9256261.496707  1170500.844889  4243655.499153 -1278863.567906 -1440468.441381   784645.860689   290752.966795  -313511.698748     4609.468539    77061.320703   -24479.759409    -8980.146131     6771.857776     -749.121997
     282.866530      279.418810      311.125380      291.580844      180.080696      446.254102      551.045676     -449.222746      284.808211     1886.389933     -157.083858      707.875618    -6771.907904    -9159.385848    64252.684195    10867.194738  -289066.813424    94951.599268   962504.886201  -571891.284100 -2733525.971558  1760025.025688  7187863.097073 -3029222.579037 *************** -1174162.457549 35047667.466545 27564206.690138 *************** *************** *************** 67056705.221054 *************** *************** 75259514.692352 30328962.369460 -1626853.116419 *************** *************** *************** *************** *************** *************** *************** *************** *************** *************** *************** *************** *************** *************** *************** *************** *************** *************** *************** *************** *************** *************** *************** *************** *************** *************** -5635815.242277 *************** *************** *************** -9590486.898058 17557316.875424 34393966.205922 19301968.952558 *************** ***************  7744524.768184 29768421.212074 -3538622.019650 ***************  -630708.301428 33235446.379236  2969278.240524 *************** -2365768.988506 20860148.482811   201580.016856 ***************  1522292.877707  6647795.010068 -1912632.650153 -2582421.934643  1355599.733558   639210.052903  -635486.329678   -24189.016527   190710.209920   -53325.748895   -29561.088917    21042.785707    -1374.773988    -3533.750341
     289.652088      277.703613      268.788053      358.425821      266.693661       53.272991      717.843132      548.015055    -1038.987010     1335.771016      641.770017    -1678.449598    13220.897899   -19304.036671   -52889.650286   152937.706102   108987.618326  -626147.189525   -77361.693569  1937784.126280  -212345.885363 -5119205.291429   487558.821889 12105788.581691  2000778.529121 *************** *************** 34685854.821546 56307513.694800 -3580943.216462 *************** *************** *************** 62420590.610410 *************** *************** 88175421.289262 *************** *************** *************** *************** *************** *************** *************** *************** *************** *************** *************** *************** *************** *************** *************** *************** *************** *************** *************** *************** *************** *************** *************** *************** *************** *************** 32898778.346407 13646156.466190 11872117.458292 25017229.078323 36496678.321260 31778718.592540  4457225.339300 *************** *************** 12337424.472963 28989835.957579 -5867416.683655 ***************  1351432.479057 34371061.686730  1837864.636867 *************** -2261243.543154 25113077.022554   439787.248992 ***************  1651061.571533  9709538.756255 -2522387.228504 -4303535.517005  2091252.022252  1297880.252088 -1153006.495834  -136080.778098   420175.170639   -93160.745377   -86854.088433    53362.737031     1196.595332   -12393.069161     2756.271309