<?xml version="1.0"?>
<VTKFile type="StructuredGrid">
<StructuredGrid WholeExtent="     0    19     0    19     0     0">
<Piece Extent="     0    19     0    19     0     0">
<Points>
<DataArray type="Float32" NumberOfComponents="3"/>
      -0.002500       -0.002500        0.000000       -0.002237       -0.002500        0.000000       -0.001974       -0.002500        0.000000       -0.001711       -0.002500        0.000000       -0.001447       -0.002500        0.000000       -0.001184       -0.002500        0.000000       -0.000921       -0.002500        0.000000       -0.000658       -0.002500        0.000000       -0.000395       -0.002500        0.000000       -0.000132       -0.002500        0.000000        0.000132       -0.002500        0.000000        0.000395       -0.002500        0.000000        0.000658       -0.002500        0.000000        0.000921       -0.002500        0.000000        0.001184       -0.002500        0.000000        0.001447       -0.002500        0.000000        0.001711       -0.002500        0.000000        0.001974       -0.002500        0.000000        0.002237       -0.002500        0.000000        0.002500       -0.002500        0.000000
      -0.002500       -0.002237        0.000000       -0.002237       -0.002237        0.000000       -0.001974       -0.002237        0.000000       -0.001711       -0.002237        0.000000       -0.001447       -0.002237        0.000000       -0.001184       -0.002237        0.000000       -0.000921       -0.002237        0.000000       -0.000658       -0.002237        0.000000       -0.000395       -0.002237        0.000000       -0.000132       -0.002237        0.000000        0.000132       -0.002237        0.000000        0.000395       -0.002237        0.000000        0.000658       -0.002237        0.000000        0.000921       -0.002237        0.000000        0.001184       -0.002237        0.000000        0.001447       -0.002237        0.000000        0.001711       -0.002237        0.000000        0.001974       -0.002237        0.000000        0.002237       -0.002237        0.000000        0.002500       -0.002237        0.000000
      -0.002500       -0.001974        0.000000       -0.002237       -0.001974        0.000000       -0.001974       -0.001974        0.000000       -0.001711       -0.001974        0.000000       -0.001447       -0.001974        0.000000       -0.001184       -0.001974        0.000000       -0.000921       -0.001974        0.000000       -0.000658       -0.001974        0.000000       -0.000395       -0.001974        0.000000       -0.000132       -0.001974        0.000000        0.000132       -0.001974        0.000000        0.000395       -0.001974        0.000000        0.000658       -0.001974        0.000000        0.000921       -0.001974        0.000000        0.001184       -0.001974        0.000000        0.001447       -0.001974        0.000000        0.001711       -0.001974        0.000000        0.001974       -0.001974        0.000000        0.002237       -0.001974        0.000000        0.002500       -0.001974        0.000000
      -0.002500       -0.001711        0.000000       -0.002237       -0.001711        0.000000       -0.001974       -0.001711        0.000000       -0.001711       -0.001711        0.000000       -0.001447       -0.001711        0.000000       -0.001184       -0.001711        0.000000       -0.000921       -0.001711        0.000000       -0.000658       -0.001711        0.000000       -0.000395       -0.001711        0.000000       -0.000132       -0.001711        0.000000        0.000132       -0.001711        0.000000        0.000395       -0.001711        0.000000        0.000658       -0.001711        0.000000        0.000921       -0.001711        0.000000        0.001184       -0.001711        0.000000        0.001447       -0.001711        0.000000        0.001711       -0.001711        0.000000        0.001974       -0.001711        0.000000        0.002237       -0.001711        0.000000        0.002500       -0.001711        0.000000
      -0.002500       -0.001447        0.000000       -0.002237       -0.001447        0.000000       -0.001974       -0.001447        0.000000       -0.001711       -0.001447        0.000000       -0.001447       -0.001447        0.000000       -0.001184       -0.001447        0.000000       -0.000921       -0.001447        0.000000       -0.000658       -0.001447        0.000000       -0.000395       -0.001447        0.000000       -0.000132       -0.001447        0.000000        0.000132       -0.001447        0.000000        0.000395       -0.001447        0.000000        0.000658       -0.001447        0.000000        0.000921       -0.001447        0.000000        0.001184       -0.001447        0.000000        0.001447       -0.001447        0.000000        0.001711       -0.001447        0.000000        0.001974       -0.001447        0.000000        0.002237       -0.001447        0.000000        0.002500       -0.001447        0.000000
      -0.002500       -0.001184        0.000000       -0.002237       -0.001184        0.000000       -0.001974       -0.001184        0.000000       -0.001711       -0.001184        0.000000       -0.001447       -0.001184        0.000000       -0.001184       -0.001184        0.000000       -0.000921       -0.001184        0.000000       -0.000658       -0.001184        0.000000       -0.000395       -0.001184        0.000000       -0.000132       -0.001184        0.000000        0.000132       -0.001184        0.000000        0.000395       -0.001184        0.000000        0.000658       -0.001184        0.000000        0.000921       -0.001184        0.000000        0.001184       -0.001184        0.000000        0.001447       -0.001184        0.000000        0.001711       -0.001184        0.000000        0.001974       -0.001184        0.000000        0.002237       -0.001184        0.000000        0.002500       -0.001184        0.000000
      -0.002500       -0.000921        0.000000       -0.002237       -0.000921        0.000000       -0.001974       -0.000921        0.000000       -0.001711       -0.000921        0.000000       -0.001447       -0.000921        0.000000       -0.001184       -0.000921        0.000000       -0.000921       -0.000921        0.000000       -0.000658       -0.000921        0.000000       -0.000395       -0.000921        0.000000       -0.000132       -0.000921        0.000000        0.000132       -0.000921        0.000000        0.000395       -0.000921        0.000000        0.000658       -0.000921        0.000000        0.000921       -0.000921        0.000000        0.001184       -0.000921        0.000000        0.001447       -0.000921        0.000000        0.001711       -0.000921        0.000000        0.001974       -0.000921        0.000000        0.002237       -0.000921        0.000000        0.002500       -0.000921        0.000000
      -0.002500       -0.000658        0.000000       -0.002237       -0.000658        0.000000       -0.001974       -0.000658        0.000000       -0.001711       -0.000658        0.000000       -0.001447       -0.000658        0.000000       -0.001184       -0.000658        0.000000       -0.000921       -0.000658        0.000000       -0.000658       -0.000658        0.000000       -0.000395       -0.000658        0.000000       -0.000132       -0.000658        0.000000        0.000132       -0.000658        0.000000        0.000395       -0.000658        0.000000        0.000658       -0.000658        0.000000        0.000921       -0.000658        0.000000        0.001184       -0.000658        0.000000        0.001447       -0.000658        0.000000        0.001711       -0.000658        0.000000        0.001974       -0.000658        0.000000        0.002237       -0.000658        0.000000        0.002500       -0.000658        0.000000
      -0.002500       -0.000395        0.000000       -0.002237       -0.000395        0.000000       -0.001974       -0.000395        0.000000       -0.001711       -0.000395        0.000000       -0.001447       -0.000395        0.000000       -0.001184       -0.000395        0.000000       -0.000921       -0.000395        0.000000       -0.000658       -0.000395        0.000000       -0.000395       -0.000395        0.000000       -0.000132       -0.000395        0.000000        0.000132       -0.000395        0.000000        0.000395       -0.000395        0.000000        0.000658       -0.000395        0.000000        0.000921       -0.000395        0.000000        0.001184       -0.000395        0.000000        0.001447       -0.000395        0.000000        0.001711       -0.000395        0.000000        0.001974       -0.000395        0.000000        0.002237       -0.000395        0.000000        0.002500       -0.000395        0.000000
      -0.002500       -0.000132        0.000000       -0.002237       -0.000132        0.000000       -0.001974       -0.000132        0.000000       -0.001711       -0.000132        0.000000       -0.001447       -0.000132        0.000000       -0.001184       -0.000132        0.000000       -0.000921       -0.000132        0.000000       -0.000658       -0.000132        0.000000       -0.000395       -0.000132        0.000000       -0.000132       -0.000132        0.000000        0.000132       -0.000132        0.000000        0.000395       -0.000132        0.000000        0.000658       -0.000132        0.000000        0.000921       -0.000132        0.000000        0.001184       -0.000132        0.000000        0.001447       -0.000132        0.000000        0.001711       -0.000132        0.000000        0.001974       -0.000132        0.000000        0.002237       -0.000132        0.000000        0.002500       -0.000132        0.000000
      -0.002500        0.000132        0.000000       -0.002237        0.000132        0.000000       -0.001974        0.000132        0.000000       -0.001711        0.000132        0.000000       -0.001447        0.000132        0.000000       -0.001184        0.000132        0.000000       -0.000921        0.000132        0.000000       -0.000658        0.000132        0.000000       -0.000395        0.000132        0.000000       -0.000132        0.000132        0.000000        0.000132        0.000132        0.000000        0.000395        0.000132        0.000000        0.000658        0.000132        0.000000        0.000921        0.000132        0.000000        0.001184        0.000132        0.000000        0.001447        0.000132        0.000000        0.001711        0.000132        0.000000        0.001974        0.000132        0.000000        0.002237        0.000132        0.000000        0.002500        0.000132        0.000000
      -0.002500        0.000395        0.000000       -0.002237        0.000395        0.000000       -0.001974        0.000395        0.000000       -0.001711        0.000395        0.000000       -0.001447        0.000395        0.000000       -0.001184        0.000395        0.000000       -0.000921        0.000395        0.000000       -0.000658        0.000395        0.000000       -0.000395        0.000395        0.000000       -0.000132        0.000395        0.000000        0.000132        0.000395        0.000000        0.000395        0.000395        0.000000        0.000658        0.000395        0.000000        0.000921        0.000395        0.000000        0.001184        0.000395        0.000000        0.001447        0.000395        0.000000        0.001711        0.000395        0.000000        0.001974        0.000395        0.000000        0.002237        0.000395        0.000000        0.002500        0.000395        0.000000
      -0.002500        0.000658        0.000000       -0.002237        0.000658        0.000000       -0.001974        0.000658        0.000000       -0.001711        0.000658        0.000000       -0.001447        0.000658        0.000000       -0.001184        0.000658        0.000000       -0.000921        0.000658        0.000000       -0.000658        0.000658        0.000000       -0.000395        0.000658        0.000000       -0.000132        0.000658        0.000000        0.000132        0.000658        0.000000        0.000395        0.000658        0.000000        0.000658        0.000658        0.000000        0.000921        0.000658        0.000000        0.001184        0.000658        0.000000        0.001447        0.000658        0.000000        0.001711        0.000658        0.000000        0.001974        0.000658        0.000000        0.002237        0.000658        0.000000        0.002500        0.000658        0.000000
      -0.002500        0.000921        0.000000       -0.002237        0.000921        0.000000       -0.001974        0.000921        0.000000       -0.001711        0.000921        0.000000       -0.001447        0.000921        0.000000       -0.001184        0.000921        0.000000       -0.000921        0.000921        0.000000       -0.000658        0.000921        0.000000       -0.000395        0.000921        0.000000       -0.000132        0.000921        0.000000        0.000132        0.000921        0.000000        0.000395        0.000921        0.000000        0.000658        0.000921        0.000000        0.000921        0.000921        0.000000        0.001184        0.000921        0.000000        0.001447        0.000921        0.000000        0.001711        0.000921        0.000000        0.001974        0.000921        0.000000        0.002237        0.000921        0.000000        0.002500        0.000921        0.000000
      -0.002500        0.001184        0.000000       -0.002237        0.001184        0.000000       -0.001974        0.001184        0.000000       -0.001711        0.001184        0.000000       -0.001447        0.001184        0.000000       -0.001184        0.001184        0.000000       -0.000921        0.001184        0.000000       -0.000658        0.001184        0.000000       -0.000395        0.001184        0.000000       -0.000132        0.001184        0.000000        0.000132        0.001184        0.000000        0.000395        0.001184        0.000000        0.000658        0.001184        0.000000        0.000921        0.001184        0.000000        0.001184        0.001184        0.000000        0.001447        0.001184        0.000000        0.001711        0.001184        0.000000        0.001974        0.001184        0.000000        0.002237        0.001184        0.000000        0.002500        0.001184        0.000000
      -0.002500        0.001447        0.000000       -0.002237        0.001447        0.000000       -0.001974        0.001447        0.000000       -0.001711        0.001447        0.000000       -0.001447        0.001447        0.000000       -0.001184        0.001447        0.000000       -0.000921        0.001447        0.000000       -0.000658        0.001447        0.000000       -0.000395        0.001447        0.000000       -0.000132        0.001447        0.000000        0.000132        0.001447        0.000000        0.000395        0.001447        0.000000        0.000658        0.001447        0.000000        0.000921        0.001447        0.000000        0.001184        0.001447        0.000000        0.001447        0.001447        0.000000        0.001711        0.001447        0.000000        0.001974        0.001447        0.000000        0.002237        0.001447        0.000000        0.002500        0.001447        0.000000
      -0.002500        0.001711        0.000000       -0.002237        0.001711        0.000000       -0.001974        0.001711        0.000000       -0.001711        0.001711        0.000000       -0.001447        0.001711        0.000000       -0.001184        0.001711        0.000000       -0.000921        0.001711        0.000000       -0.000658        0.001711        0.000000       -0.000395        0.001711        0.000000       -0.000132        0.001711        0.000000        0.000132        0.001711        0.000000        0.000395        0.001711        0.000000        0.000658        0.001711        0.000000        0.000921        0.001711        0.000000        0.001184        0.001711        0.000000        0.001447        0.001711        0.000000        0.001711        0.001711        0.000000        0.001974        0.001711        0.000000        0.002237        0.001711        0.000000        0.002500        0.001711        0.000000
      -0.002500        0.001974        0.000000       -0.002237        0.001974        0.000000       -0.001974        0.001974        0.000000       -0.001711        0.001974        0.000000       -0.001447        0.001974        0.000000       -0.001184        0.001974        0.000000       -0.000921        0.001974        0.000000       -0.000658        0.001974        0.000000       -0.000395        0.001974        0.000000       -0.000132        0.001974        0.000000        0.000132        0.001974        0.000000        0.000395        0.001974        0.000000        0.000658        0.001974        0.000000        0.000921        0.001974        0.000000        0.001184        0.001974        0.000000        0.001447        0.001974        0.000000        0.001711        0.001974        0.000000        0.001974        0.001974        0.000000        0.002237        0.001974        0.000000        0.002500        0.001974        0.000000
      -0.002500        0.002237        0.000000       -0.002237        0.002237        0.000000       -0.001974        0.002237        0.000000       -0.001711        0.002237        0.000000       -0.001447        0.002237        0.000000       -0.001184        0.002237        0.000000       -0.000921        0.002237        0.000000       -0.000658        0.002237        0.000000       -0.000395        0.002237        0.000000       -0.000132        0.002237        0.000000        0.000132        0.002237        0.000000        0.000395        0.002237        0.000000        0.000658        0.002237        0.000000        0.000921        0.002237        0.000000        0.001184        0.002237        0.000000        0.001447        0.002237        0.000000        0.001711        0.002237        0.000000        0.001974        0.002237        0.000000        0.002237        0.002237        0.000000        0.002500        0.002237        0.000000
      -0.002500        0.002500        0.000000       -0.002237        0.002500        0.000000       -0.001974        0.002500        0.000000       -0.001711        0.002500        0.000000       -0.001447        0.002500        0.000000       -0.001184        0.002500        0.000000       -0.000921        0.002500        0.000000       -0.000658        0.002500        0.000000       -0.000395        0.002500        0.000000       -0.000132        0.002500        0.000000        0.000132        0.002500        0.000000        0.000395        0.002500        0.000000        0.000658        0.002500        0.000000        0.000921        0.002500        0.000000        0.001184        0.002500        0.000000        0.001447        0.002500        0.000000        0.001711        0.002500        0.000000        0.001974        0.002500        0.000000        0.002237        0.002500        0.000000        0.002500        0.002500        0.000000
</Points>
<CellData Scalars="Température, U, V">
<DataArray type="Float32" Name="Temp, K"/>
   -2659.251553      293.000000      293.000000      293.000000      293.000000      293.000000      293.000000      293.000000      716.616492    -2248.698951     9266.213975   -21274.162829    39583.371322   -55424.196771    63558.930942   -57117.999553    42008.536488   -23301.488525    10408.128962
   -2659.251553      293.000000      293.000000      293.000000      293.000000      293.000000      293.000000      293.000000      716.616492    -2248.698951     9266.213975   -21274.162829    39583.371322   -55424.196771    63558.930942   -57117.999553    42008.536488   -23301.488525    10408.128962
   -2659.251553      293.000000      293.000000      293.000000      293.000000      293.000000      293.000000      293.000000      716.616492    -2248.698951     9266.213975   -21274.162829    39583.371322   -55424.196771    63558.930942   -57117.999553    42008.536488   -23301.488525    10408.128962
   -2659.251553      293.000000      293.000000      293.000000      293.000000      293.000000      293.000000      293.000000      716.616492    -2248.698951     9266.213975   -21274.162829    39583.371322   -55424.196771    63558.930942   -57117.999553    42008.536488   -23301.488525    10408.128962
   -2659.251553      293.000000      293.000000      293.000000      293.000000      293.000000      293.000000      293.000000      716.616492    -2248.698951     9266.213975   -21274.162829    39583.371322   -55424.196771    63558.930942   -57117.999553    42008.536488   -23301.488525    10408.128962
   -2659.251553      293.000000      293.000000      293.000000      293.000000      293.000000      293.000000      293.000000      716.616492    -2248.698951     9266.213975   -21274.162829    39583.371322   -55424.196771    63558.930942   -57117.999553    42008.536488   -23301.488525    10408.128962
   -2659.251553      293.000000      293.000000      293.000000      293.000000      293.000000      293.000000      293.000000      716.616492    -2248.698951     9266.213975   -21274.162829    39583.371322   -55424.196771    63558.930942   -57117.999553    42008.536488   -23301.488525    10408.128962
   -2659.251553      293.000000      293.000000      293.000000      293.000000      293.000000      293.000000      293.000000      716.616492    -2248.698951     9266.213975   -21274.162829    39583.371322   -55424.196771    63558.930942   -57117.999553    42008.536488   -23301.488525    10408.128962
   -2659.251553      293.000000      293.000000      293.000000      293.000000      293.000000      293.000000      293.000000      716.616492    -2248.698951     9266.213975   -21274.162829    39583.371322   -55424.196771    63558.930942   -57117.999553    42008.536488   -23301.488525    10408.128962
   -2659.251553      293.000000      293.000000      293.000000      293.000000      293.000000      293.000000      293.000000      716.616492    -2248.698951     9266.213975   -21274.162829    39583.371322   -55424.196771    63558.930942   -57117.999553    42008.536488   -23301.488525    10408.128962
   -2659.251553      293.000000      293.000000      293.000000      293.000000      293.000000      293.000000      293.000000      716.616492    -2248.698951     9266.213975   -21274.162829    39583.371322   -55424.196771    63558.930942   -57117.999553    42008.536488   -23301.488525    10408.128962
   -2659.251553      293.000000      293.000000      293.000000      293.000000      293.000000      293.000000      293.000000      716.616492    -2248.698951     9266.213975   -21274.162829    39583.371322   -55424.196771    63558.930942   -57117.999553    42008.536488   -23301.488525    10408.128962
   -2659.251553      293.000000      293.000000      293.000000      293.000000      293.000000      293.000000      293.000000      716.616492    -2248.698951     9266.213975   -21274.162829    39583.371322   -55424.196771    63558.930942   -57117.999553    42008.536488   -23301.488525    10408.128962
   -2659.251553      293.000000      293.000000      293.000000      293.000000      293.000000      293.000000      293.000000      716.616492    -2248.698951     9266.213975   -21274.162829    39583.371322   -55424.196771    63558.930942   -57117.999553    42008.536488   -23301.488525    10408.128962
   -2659.251553      293.000000      293.000000      293.000000      293.000000      293.000000      293.000000      293.000000      716.616492    -2248.698951     9266.213975   -21274.162829    39583.371322   -55424.196771    63558.930942   -57117.999553    42008.536488   -23301.488525    10408.128962
   -2659.251553      293.000000      293.000000      293.000000      293.000000      293.000000      293.000000      293.000000      716.616492    -2248.698951     9266.213975   -21274.162829    39583.371322   -55424.196771    63558.930942   -57117.999553    42008.536488   -23301.488525    10408.128962
   -2659.251553      293.000000      293.000000      293.000000      293.000000      293.000000      293.000000      293.000000      716.616492    -2248.698951     9266.213975   -21274.162829    39583.371322   -55424.196771    63558.930942   -57117.999553    42008.536488   -23301.488525    10408.128962
   -2659.251553      293.000000      293.000000      293.000000      293.000000      293.000000      293.000000      293.000000      716.616492    -2248.698951     9266.213975   -21274.162829    39583.371322   -55424.196771    63558.930942   -57117.999553    42008.536488   -23301.488525    10408.128962
   -2659.251553      293.000000      293.000000      293.000000      293.000000      293.000000      293.000000       48.188102     2185.487877    -7010.785999    19611.994848   -37125.301130    57070.824534   -67407.824742    65598.423035   -49098.720621    30360.084760   -12715.504205     4951.385093
<DataArray type="Float32" Name="Vitesse u, m/s"/>
     -10.000000      -10.000000      -10.000000      -10.000000      -10.000000      -10.000000      -10.000000      -10.000000      -10.000000      -10.000000      -10.000000      -10.000000      -10.000000      -10.000000      -10.000000      -10.000000      -10.000000      -10.000000      -10.000000
     -10.000000      -10.000000      -10.000000      -10.000000      -10.000000      -10.000000      -10.000000      -10.000000      -10.000000      -10.000000      -10.000000      -10.000000      -10.000000      -10.000000      -10.000000      -10.000000      -10.000000      -10.000000      -10.000000
     -10.000000      -10.000000      -10.000000      -10.000000      -10.000000      -10.000000      -10.000000      -10.000000      -10.000000      -10.000000      -10.000000      -10.000000      -10.000000      -10.000000      -10.000000      -10.000000      -10.000000      -10.000000      -10.000000
     -10.000000      -10.000000      -10.000000      -10.000000      -10.000000      -10.000000      -10.000000      -10.000000      -10.000000      -10.000000      -10.000000      -10.000000      -10.000000      -10.000000      -10.000000      -10.000000      -10.000000      -10.000000      -10.000000
     -10.000000      -10.000000      -10.000000      -10.000000      -10.000000      -10.000000      -10.000000      -10.000000      -10.000000      -10.000000      -10.000000      -10.000000      -10.000000      -10.000000      -10.000000      -10.000000      -10.000000      -10.000000      -10.000000
     -10.000000      -10.000000      -10.000000      -10.000000      -10.000000      -10.000000      -10.000000      -10.000000      -10.000000      -10.000000      -10.000000      -10.000000      -10.000000      -10.000000      -10.000000      -10.000000      -10.000000      -10.000000      -10.000000
     -10.000000      -10.000000      -10.000000      -10.000000      -10.000000      -10.000000      -10.000000      -10.000000      -10.000000      -10.000000      -10.000000      -10.000000      -10.000000      -10.000000      -10.000000      -10.000000      -10.000000      -10.000000      -10.000000
     -10.000000      -10.000000      -10.000000      -10.000000      -10.000000      -10.000000      -10.000000      -10.000000      -10.000000      -10.000000      -10.000000      -10.000000      -10.000000      -10.000000      -10.000000      -10.000000      -10.000000      -10.000000      -10.000000
     -10.000000      -10.000000      -10.000000      -10.000000      -10.000000      -10.000000      -10.000000      -10.000000      -10.000000      -10.000000      -10.000000      -10.000000      -10.000000      -10.000000      -10.000000      -10.000000      -10.000000      -10.000000      -10.000000
     -10.000000      -10.000000      -10.000000      -10.000000      -10.000000      -10.000000      -10.000000      -10.000000      -10.000000      -10.000000      -10.000000      -10.000000      -10.000000      -10.000000      -10.000000      -10.000000      -10.000000      -10.000000      -10.000000
     -10.000000      -10.000000      -10.000000      -10.000000      -10.000000      -10.000000      -10.000000      -10.000000      -10.000000      -10.000000      -10.000000      -10.000000      -10.000000      -10.000000      -10.000000      -10.000000      -10.000000      -10.000000      -10.000000
     -10.000000      -10.000000      -10.000000      -10.000000      -10.000000      -10.000000      -10.000000      -10.000000      -10.000000      -10.000000      -10.000000      -10.000000      -10.000000      -10.000000      -10.000000      -10.000000      -10.000000      -10.000000      -10.000000
     -10.000000      -10.000000      -10.000000      -10.000000      -10.000000      -10.000000      -10.000000      -10.000000      -10.000000      -10.000000      -10.000000      -10.000000      -10.000000      -10.000000      -10.000000      -10.000000      -10.000000      -10.000000      -10.000000
     -10.000000      -10.000000      -10.000000      -10.000000      -10.000000      -10.000000      -10.000000      -10.000000      -10.000000      -10.000000      -10.000000      -10.000000      -10.000000      -10.000000      -10.000000      -10.000000      -10.000000      -10.000000      -10.000000
     -10.000000      -10.000000      -10.000000      -10.000000      -10.000000      -10.000000      -10.000000      -10.000000      -10.000000      -10.000000      -10.000000      -10.000000      -10.000000      -10.000000      -10.000000      -10.000000      -10.000000      -10.000000      -10.000000