<?xml version="1.0"?>
<VTKFile type="StructuredGrid">
<StructuredGrid WholeExtent="     0    99     0    99     0     0">
<Piece Extent="     0    99     0    99     0     0">
<Points>
<DataArray type="Float32" NumberOfComponents="3"/>
      -0.002500       -0.002500        0.000000       -0.002449       -0.002500        0.000000       -0.002399       -0.002500        0.000000       -0.002348       -0.002500        0.000000       -0.002298       -0.002500        0.000000       -0.002247       -0.002500        0.000000       -0.002197       -0.002500        0.000000       -0.002146       -0.002500        0.000000       -0.002096       -0.002500        0.000000       -0.002045       -0.002500        0.000000       -0.001995       -0.002500        0.000000       -0.001944       -0.002500        0.000000       -0.001894       -0.002500        0.000000       -0.001843       -0.002500        0.000000       -0.001793       -0.002500        0.000000       -0.001742       -0.002500        0.000000       -0.001692       -0.002500        0.000000       -0.001641       -0.002500        0.000000       -0.001591       -0.002500        0.000000       -0.001540       -0.002500        0.000000       -0.001490       -0.002500        0.000000       -0.001439       -0.002500        0.000000       -0.001389       -0.002500        0.000000       -0.001338       -0.002500        0.000000       -0.001288       -0.002500        0.000000       -0.001237       -0.002500        0.000000       -0.001187       -0.002500        0.000000       -0.001136       -0.002500        0.000000       -0.001086       -0.002500        0.000000       -0.001035       -0.002500        0.000000       -0.000985       -0.002500        0.000000       -0.000934       -0.002500        0.000000       -0.000884       -0.002500        0.000000       -0.000833       -0.002500        0.000000       -0.000783       -0.002500        0.000000       -0.000732       -0.002500        0.000000       -0.000682       -0.002500        0.000000       -0.000631       -0.002500        0.000000       -0.000581       -0.002500        0.000000       -0.000530       -0.002500        0.000000       -0.000480       -0.002500        0.000000       -0.000429       -0.002500        0.000000       -0.000379       -0.002500        0.000000       -0.000328       -0.002500        0.000000       -0.000278       -0.002500        0.000000       -0.000227       -0.002500        0.000000       -0.000177       -0.002500        0.000000       -0.000126       -0.002500        0.000000       -0.000076       -0.002500        0.000000       -0.000025       -0.002500        0.000000        0.000025       -0.002500        0.000000        0.000076       -0.002500        0.000000        0.000126       -0.002500        0.000000        0.000177       -0.002500        0.000000        0.000227       -0.002500        0.000000        0.000278       -0.002500        0.000000        0.000328       -0.002500        0.000000        0.000379       -0.002500        0.000000        0.000429       -0.002500        0.000000        0.000480       -0.002500        0.000000        0.000530       -0.002500        0.000000        0.000581       -0.002500        0.000000        0.000631       -0.002500        0.000000        0.000682       -0.002500        0.000000        0.000732       -0.002500        0.000000        0.000783       -0.002500        0.000000        0.000833       -0.002500        0.000000        0.000884       -0.002500        0.000000        0.000934       -0.002500        0.000000        0.000985       -0.002500        0.000000        0.001035       -0.002500        0.000000        0.001086       -0.002500        0.000000        0.001136       -0.002500        0.000000        0.001187       -0.002500        0.000000        0.001237       -0.002500        0.000000        0.001288       -0.002500        0.000000        0.001338       -0.002500        0.000000        0.001389       -0.002500        0.000000        0.001439       -0.002500        0.000000        0.001490       -0.002500        0.000000        0.001540       -0.002500        0.000000        0.001591       -0.002500        0.000000        0.001641       -0.002500        0.000000        0.001692       -0.002500        0.000000        0.001742       -0.002500        0.000000        0.001793       -0.002500        0.000000        0.001843       -0.002500        0.000000        0.001894       -0.002500        0.000000        0.001944       -0.002500        0.000000        0.001995       -0.002500        0.000000        0.002045       -0.002500        0.000000        0.002096       -0.002500        0.000000        0.002146       -0.002500        0.000000        0.002197       -0.002500        0.000000        0.002247       -0.002500        0.000000        0.002298       -0.002500        0.000000        0.002348       -0.002500        0.000000        0.002399       -0.002500        0.000000        0.002449       -0.002500        0.000000        0.002500       -0.002500        0.000000
      -0.002500       -0.002449        0.000000       -0.002449       -0.002449        0.000000       -0.002399       -0.002449        0.000000       -0.002348       -0.002449        0.000000       -0.002298       -0.002449        0.000000       -0.002247       -0.002449        0.000000       -0.002197       -0.002449        0.000000       -0.002146       -0.002449        0.000000       -0.002096       -0.002449        0.000000       -0.002045       -0.002449        0.000000       -0.001995       -0.002449        0.000000       -0.001944       -0.002449        0.000000       -0.001894       -0.002449        0.000000       -0.001843       -0.002449        0.000000       -0.001793       -0.002449        0.000000       -0.001742       -0.002449        0.000000       -0.001692       -0.002449        0.000000       -0.001641       -0.002449        0.000000       -0.001591       -0.002449        0.000000       -0.001540       -0.002449        0.000000       -0.001490       -0.002449        0.000000       -0.001439       -0.002449        0.000000       -0.001389       -0.002449        0.000000       -0.001338       -0.002449        0.000000       -0.001288       -0.002449        0.000000       -0.001237       -0.002449        0.000000       -0.001187       -0.002449        0.000000       -0.001136       -0.002449        0.000000       -0.001086       -0.002449        0.000000       -0.001035       -0.002449        0.000000       -0.000985       -0.002449        0.000000       -0.000934       -0.002449        0.000000       -0.000884       -0.002449        0.000000       -0.000833       -0.002449        0.000000       -0.000783       -0.002449        0.000000       -0.000732       -0.002449        0.000000       -0.000682       -0.002449        0.000000       -0.000631       -0.002449        0.000000       -0.000581       -0.002449        0.000000       -0.000530       -0.002449        0.000000       -0.000480       -0.002449        0.000000       -0.000429       -0.002449        0.000000       -0.000379       -0.002449        0.000000       -0.000328       -0.002449        0.000000       -0.000278       -0.002449        0.000000       -0.000227       -0.002449        0.000000       -0.000177       -0.002449        0.000000       -0.000126       -0.002449        0.000000       -0.000076       -0.002449        0.000000       -0.000025       -0.002449        0.000000        0.000025       -0.002449        0.000000        0.000076       -0.002449        0.000000        0.000126       -0.002449        0.000000        0.000177       -0.002449        0.000000        0.000227       -0.002449        0.000000        0.000278       -0.002449        0.000000        0.000328       -0.002449        0.000000        0.000379       -0.002449        0.000000        0.000429       -0.002449        0.000000        0.000480       -0.002449        0.000000        0.000530       -0.002449        0.000000        0.000581       -0.002449        0.000000        0.000631       -0.002449        0.000000        0.000682       -0.002449        0.000000        0.000732       -0.002449        0.000000        0.000783       -0.002449        0.000000        0.000833       -0.002449        0.000000        0.000884       -0.002449        0.000000        0.000934       -0.002449        0.000000        0.000985       -0.002449        0.000000        0.001035       -0.002449        0.000000        0.001086       -0.002449        0.000000        0.001136       -0.002449        0.000000        0.001187       -0.002449        0.000000        0.001237       -0.002449        0.000000        0.001288       -0.002449        0.000000        0.001338       -0.002449        0.000000        0.001389       -0.002449        0.000000        0.001439       -0.002449        0.000000        0.001490       -0.002449        0.000000        0.001540       -0.002449        0.000000        0.001591       -0.002449        0.000000        0.001641       -0.002449        0.000000        0.001692       -0.002449        0.000000        0.001742       -0.002449        0.000000        0.001793       -0.002449        0.000000        0.001843       -0.002449        0.000000        0.001894       -0.002449        0.000000        0.001944       -0.002449        0.000000        0.001995       -0.002449        0.000000        0.002045       -0.002449        0.000000        0.002096       -0.002449        0.000000        0.002146       -0.002449        0.000000        0.002197       -0.002449        0.000000        0.002247       -0.002449        0.000000        0.002298       -0.002449        0.000000        0.002348       -0.002449        0.000000        0.002399       -0.002449        0.000000        0.002449       -0.002449        0.000000        0.002500       -0.002449        0.000000
[...]
<CellData Scalars="Temprature, U, V">
<DataArray type="Float32" Name="Temp, K"/>
     292.959622      293.625725      293.448617      292.084787      289.781544      286.739617      282.917863      278.371697      273.309884      267.907717      262.282188      256.565082      250.895738      245.380027      240.088019      235.068346      230.352094      225.952768      221.870144      218.095295      214.614737      211.412317      208.471406      205.773512      203.301418      201.037580      198.964004      197.066380      195.323210      193.697106      192.076721      190.164193      187.191911      181.082138      167.625811      137.780375       74.981326      -48.464490     -274.956549     -662.755750    -1280.147871    -2197.056599    -3462.600688    -5084.439898    -7002.376107    -9080.937448   -11112.853246   -12849.228324   -14047.274004   -14529.768252   -14218.451994   -13162.354075   -11524.356513    -9534.313957    -7445.261164    -5475.605181    -3780.927274    -2437.770113    -1448.430075     -771.598470     -341.084886      -85.503923       55.597143      128.384635      163.394410      179.303756      186.427603      189.832408      191.864721      193.522371      195.139337      196.866870      198.741287      200.786634      203.021974      205.462597      208.122700      211.013216      214.160213      217.627448      221.444067      225.425888      229.373313      233.915405      240.115299      246.296425      248.571540      250.817145      263.907518      278.360968      267.743174      254.651609      292.668769      327.044375      264.040295      226.365430      354.972175      383.226049      -61.929555
     292.465570      293.983018      294.999304      293.947043      290.672371      285.723364      279.233475      271.164447      261.787976      251.503262      240.599066      229.323922      217.956742      206.750028      195.885583      185.487972      175.641983      166.396489      157.768928      149.753984      142.332314      135.476423      129.155733      123.337251      117.986853      113.073515      108.559103      104.418379      100.605736       97.054202       93.584086       89.603919       83.748021       72.106688       46.832038       -9.422978     -128.035260     -362.210035     -793.571698    -1534.525066    -2718.116202    -4479.539364    -6916.693800   -10044.965803   -13750.908968   -17771.656007   -21706.962327   -25073.789753   -27402.686832   -28342.746627   -27746.539989   -25706.220405   -22536.388480   -18684.634699   -14641.101498   -10832.448251    -7556.861217    -4962.088906    -3054.457776    -1752.273732     -925.362983     -435.869989     -166.345811      -27.922929       38.392326       68.570141       82.180002       88.861799       93.054136       96.609978      100.129867      103.904751      107.996835      112.452283      117.305945      122.586770      128.321887      134.545847      141.333356      148.763247      156.717749      164.867733      173.542363      184.266062      196.662275      205.451470      209.923395      224.733177      253.301547      258.025383      229.921510      253.434931      337.426537      307.525784      179.798839      280.170467      497.781048      220.187942     -388.825787
     291.850758      293.248827      295.546906      297.010208      296.137744      293.043864      288.317403      281.989171      274.010068      264.695354      254.451996      243.563480      232.287362      220.912980      209.697201      198.824577      188.421379      178.572032      169.324511      160.696466      152.682846      145.264052      138.411341      132.094319      126.278850      120.934162      116.024252      111.521072      107.389487      103.614145      100.215473       97.256926       95.099101       94.585334       97.983553      109.461586      137.876472      197.898140      312.538413      514.145114      841.675863     1336.058100     2026.920413     2921.854256     3989.514307     5155.550269     6302.042547     7287.115477     7969.510286     8248.704799     8075.958827     7480.707538     6555.406014     5433.852803     4260.741943     3159.462618     2219.071828     1479.710057      941.089077      577.390842      350.130390      218.492550      148.367378      114.299689       99.800929       95.160827       95.062269       96.977920       99.814633      103.169576      106.886884      110.964291      115.414380      120.262930      125.539832      131.275478      137.506436      144.294906      151.699065      159.629269      167.849539      176.642457      187.241832      199.373657      208.501793      213.444103      227.206484      255.465922      263.688254      234.399798      248.071827      338.780401      331.832123      181.317893      232.254839      509.787291      369.907488     -258.853286     -539.264701
     291.400891      292.359918      294.650134      297.768308      299.617905      298.890383      295.997772      291.502897      285.320796      277.417119      268.153146      257.935766      247.044680      235.749730      224.350736      213.109036      202.212828      191.790196      181.924174      172.661342      164.019514      155.995395      148.569134      141.712031      135.392314      129.575016      124.230200      119.323002      114.830485      110.773537      107.281313      104.996904      105.594543      113.897159      140.526088      208.395655      360.799694      671.988992     1257.227979     2277.064137     3925.409212     6400.525940     9851.058348    14307.333512    19614.747925    25398.413741    31079.927535    35957.956524    39346.015705    40727.963200    39884.796623    36949.329650    32376.243119    26822.322935    21000.084809    15529.550199    10840.786070     7141.288521     4438.364128     2606.850668     1454.299576      780.812917      416.425680      234.558200      151.755749      118.095135      106.886495      105.106300      106.993726      110.301928      114.294730      118.720447      123.567085      128.846517      134.588425      140.830564      147.625285      155.016604      162.941085      171.240372      180.151074      190.638934      202.506295      211.975508      217.555645      230.336405      257.687544      269.498596      240.992272      243.666428      336.007054      357.494187      195.454440      180.669853      493.380907      506.277586     -126.093790     -590.316344     -452.704424
     291.085423      291.845314      293.463633      296.745744      300.664169      302.816829      302.221646      299.561848      295.302208      289.249969      281.410903      272.187829      261.980958      251.069734      239.738742      228.297650      217.012924      206.078122      195.623577      185.729604      176.439557      167.771113      159.723507      152.278485      145.408268      139.078507      133.256562      127.906807      122.999350      118.493248      114.313464      110.314382      106.024851      100.327729       90.310002       70.190006       28.163902      -56.065266     -214.683893     -493.330500     -948.004526    -1637.631378    -2607.130909    -3869.076800    -5381.978153    -7040.288128    -8676.820092   -10087.388726   -11069.912378   -11474.274748   -11233.099539   -10386.464534    -9067.051265    -7467.799828    -5796.536182    -4232.303551    -2899.557969    -1854.806903    -1097.226208     -588.071067     -270.681029      -86.706361       12.546343       62.764451       87.021938       98.777875      105.230815      109.747137      113.795481      117.939482      122.403482      127.253134      132.536750      138.289532      144.546954      151.353766      158.745448      166.682221      175.066226      184.091688      194.488448      206.107000      215.893580      222.231545      234.216088      260.155227      275.151081      249.358416      241.494763      329.580723      380.760266      222.745082      134.633734      445.841826      622.612676       41.768896     -620.930902     -553.386817     -300.674610
     290.741908      291.623316      292.813787      295.205931      299.580148      304.235286      306.608022      306.158855      303.767988      299.740892      293.803679      286.022116      276.830588      266.618741      255.670853      244.287436      232.786421      221.440301      210.451178      199.953267      190.023358      180.698250      171.993897      163.911249      156.435628      149.541476      143.194639      137.360313      132.003714      127.041536      122.288426      117.005507      109.174738       93.112478       55.535560      -32.233928     -225.754552     -621.858850    -1372.736991    -2692.621380    -4844.434572    -8100.102904   -12668.824193   -18602.669220   -25704.580276   -33476.130900   -41137.786659   -47738.235760   -52340.916109   -54237.804312   -53125.066659   -49180.536075   -43020.097754   -35539.543947   -27707.317105   -20364.153150   -14089.423692    -9157.300159    -5572.261897    -3157.288862    -1647.821394     -772.482239     -302.075588      -67.939905       40.108077       86.914403      106.703425      115.907013      121.582642      126.422896      131.344573      136.649611      142.414955      148.690979      155.516851      162.922503      170.887953      179.360392      188.495868      198.825296      210.224938      220.294417      227.454112      238.890239      263.080448      280.513532      258.977702      242.427969      320.860592      398.562317      260.772155      103.035895      371.532130      703.639379      245.622502     -603.973587     -700.405106     -293.525642     -257.578010
     290.299332      291.332754      292.702614      294.310398      297.647709      303.186592      308.475396      311.003220      310.739136      308.651275      304.848543      299.015098      291.287204      282.117649      271.885371      260.885885      249.435354      237.856538      226.428202      215.365223      204.810384      194.837490      185.474094      176.729579      168.604496      161.088703      154.158514      147.783902      141.927642      136.561231      131.691806      127.417838      124.205116      123.325058      128.183727      146.047584      191.696327      291.279028      486.773834      838.350070     1421.048402     2314.397639     3581.124224     5240.744319     7241.376186     9443.821497    11625.655373    13512.774577    14833.193602    15381.385348    15066.971083    13941.897269    12184.439842    10054.479931     7831.567062     5756.688760     3994.481241     2619.454372     1629.050877      969.389137      563.188196      332.304980      211.899288      155.034279      131.623047      124.346519      124.184980      127.019810      131.131538      135.921904      141.215785      147.004472      153.307250      160.160507      167.593960      175.602882      184.165426      193.404227      203.690057      214.910726      225.228795      233.220431      244.366160      266.663237      285.624995      269.284054      246.822404      311.727602      409.134960      304.875694       92.293253      281.113556      735.668725      469.833036     -514.039931     -871.129265     -366.023097     -144.735110     -337.558983
     289.837814      290.807146      292.574078      294.280493      296.368379      300.862258      307.584537      313.377644      316.028017      316.007644      314.249587      310.659986      304.924386      297.248944      288.090770      277.822190      266.758204      255.229625      243.557542      232.024027      220.860319      210.225604      200.195647      190.788456      182.002550      173.833561      166.272051      159.300167      152.884050      147.028573      141.839819      137.974006      137.557530      146.787930      180.954643      273.715916      491.633098      952.730920     1844.975826     3435.802663     6057.818427    10059.423555    15714.625602    23102.550148    31988.246689    41752.131488    51412.283464    59762.191793    65607.712230    68041.456862    66669.666480    61714.195297    53955.901619    44535.042485    34682.670957    25464.809677    17611.850132    11463.807139     7018.726527     4044.452161     2201.618149     1145.586947      587.612927      317.361922      198.834725      153.161963      139.310945      138.035517      141.347724      146.338592      152.106249      158.439436      165.333287      172.808183      180.872779      189.525762      198.860774      209.125568      220.213820      230.753977      239.545381      250.630379      271.067752      290.662007      279.796774      254.535029      304.118669      412.309835      349.401651      104.768697      189.205412      712.400614      687.525001     -336.870135    -1026.643143     -535.020299      -41.146310     -261.258206     -411.106673
     289.464323      290.222741      292.033104      294.422692      296.323241      299.056773      304.923720      312.778318      318.941976      321.723113      322.015491      320.603973      317.216489      311.579466      303.957579      294.798248      284.475209      273.335039      261.723885      249.951833      238.294371      226.998723      216.248738      206.133650      196.667534      187.836037      179.625937      172.024365      165.016679      158.575400      152.635188      147.033920      141.225246      133.730725      120.675598       93.468887       34.570449      -87.673954     -324.668370     -750.846027    -1460.288227    -2553.668892    -4112.396301    -6164.404566    -8648.724224   -11393.789522   -14122.184589   -16489.516610   -18152.507869   -18849.450673   -18465.293529   -17063.604288   -14868.597092   -12207.834859    -9433.513864    -6848.654664    -4658.405294    -2954.705187    -1732.244715     -921.257530     -423.403628     -140.466806        8.508212       81.562310      115.566680      131.506085      140.110394      146.237607      151.891025      157.784458      164.157705      171.086202      178.608459      186.735920      195.477473      204.903100      215.170873      226.179728      236.929577      246.463147      257.667331      276.413520      295.886467      290.209563      265.050585      299.611755      409.381282      389.112697      138.352403      110.855885      637.899347      867.665828      -76.883919    -1117.834687     -798.757962        2.801688      -99.934179     -468.451245     -372.500478
     289.174136      289.833168      291.258726      293.998820      296.810104      298.827873      302.477642      309.893998      318.760675      325.182237      328.143485      328.818196      327.759679      324.566550      319.036745      311.472958      302.297489      291.895357      280.663357      268.971232      257.109636      245.330339      233.885796      222.988110      212.752066      203.199014      194.308009      186.052072      178.420377      171.373951      164.773535      157.967269      148.752555      130.629009       87.023894      -19.321644     -263.366502     -780.103881    -1787.264649    -3597.846960    -6605.557917   -11227.826168   -17799.423799   -26428.622253   -36852.882854   -48350.620858   -59763.795147   -69659.915702   -76614.072119   -79538.240496   -77955.175430   -72123.364773   -62969.719260   -51851.915361   -40235.022280   -29384.982126   -20164.831130   -12970.587985    -7791.392982    -4343.855839    -2220.857499    -1012.479382     -377.910328      -71.054199       65.658386      122.469343      145.691145      156.606918      163.851349      170.498586      177.487379      185.052781      193.240122      202.065491      211.578175      221.874434      232.861426      243.823776      254.031250      265.477304      282.781018      301.591070      300.421998      277.668434      299.171283      402.626897      420.330870      187.296658       57.950854      526.225393      983.625508      240.493066    -1098.605502    -1125.025451      -71.550572      128.639981     -450.941778     -491.128821     -264.236989
     288.859907      289.645644      290.725096      293.026738      296.693222      299.655738      301.840883      306.753171      315.812956      325.520957      332.131151      335.356178      336.475477      335.767586      332.765692      327.361108      319.867704      310.660905      300.143058      288.787032      277.010285      265.085505      253.220449      241.647444      230.594769      220.208423      210.530421      201.542297      193.208644      185.500004      178.417770      172.053721      166.873451      164.353287      168.543100      188.838033      244.753593      372.193189      630.209943     1105.199206     1907.624826     3156.909103     4951.526185     7328.107770    10219.207816    13426.401669    16624.959353    19409.066277    21372.333074    22203.070135    21763.345040    20126.332167    17556.299554    14440.263577    11194.341006     8175.821261     5625.265510     3649.264132     2239.350886     1311.331575      748.196724      434.140533      274.364752      201.493295      173.142903      165.513813      166.686863      171.391946      177.570158      184.560543      192.197101      200.464267      209.377634      218.981367      229.333971      240.353874      251.536235      262.340580      274.090196      290.224120      308.053595      310.518432      291.688068      303.092449      394.674563      441.515461      243.931797       36.717130      398.008196     1020.627548      573.421922     -941.286124    -1451.532770     -306.958885      364.328058     -300.119479     -654.554231     -287.348955     -220.176014
     288.447067      289.416869      290.611189      292.189393      295.620182      300.052397      302.895122      305.466528      312.005972      322.695788      333.055723      339.841911      343.437884      345.053067      344.686073      341.874697      336.623439      329.229356      319.986366      309.304371      297.758528      285.855895      273.874488      261.966060      250.310820      239.127010      228.582714      218.750846      209.620501      201.163733      193.429414      186.912596      183.621728      189.876274      222.459680      320.121286      562.247624     1093.936782     2152.054863     4080.467850     7315.986987    12326.777822    19494.722076    28954.498245    40430.210139    53132.839727    65781.418362    76781.464102    84539.604555    87833.570033    86121.663818    79685.687710    69556.712486    57249.377381    44398.224035    32413.435366    22252.548916    14349.738865     8684.958089     4935.668224     2644.629860     1354.741429      688.526128      375.488710      244.013265      196.948886      185.170865      186.604077      192.565282      200.125746      208.490171      217.520833      227.239376      237.685147      248.789588      260.196446      271.509450      283.564153      298.779281      315.505259      320.713570      306.547983      311.114880      387.921769      453.209405      300.632345       47.000798      275.282999      979.568847      873.986633     -647.857667    -1699.586381     -706.406915      512.847575       10.008077     -782.701858     -442.708024     -100.093575     -299.903045