<?xml version="1.0"?>
<VTKFile type="StructuredGrid">
<StructuredGrid WholeExtent="     0    99     0    99     0     0">
<Piece Extent="     0    99     0    99     0     0">
<Points>
<DataArray type="Float32" NumberOfComponents="3"/>
      -0.002500       -0.002500        0.000000       -0.002449       -0.002500        0.000000       -0.002399       -0.002500        0.000000       -0.002348       -0.002500        0.000000       -0.002298       -0.002500        0.000000       -0.002247       -0.002500        0.000000       -0.002197       -0.002500        0.000000       -0.002146       -0.002500        0.000000       -0.002096       -0.002500        0.000000       -0.002045       -0.002500        0.000000       -0.001995       -0.002500        0.000000       -0.001944       -0.002500        0.000000       -0.001894       -0.002500        0.000000       -0.001843       -0.002500        0.000000       -0.001793       -0.002500        0.000000       -0.001742       -0.002500        0.000000       -0.001692       -0.002500        0.000000       -0.001641       -0.002500        0.000000       -0.001591       -0.002500        0.000000       -0.001540       -0.002500        0.000000       -0.001490       -0.002500        0.000000       -0.001439       -0.002500        0.000000       -0.001389       -0.002500        0.000000       -0.001338       -0.002500        0.000000       -0.001288       -0.002500        0.000000       -0.001237       -0.002500        0.000000       -0.001187       -0.002500        0.000000       -0.001136       -0.002500        0.000000       -0.001086       -0.002500        0.000000       -0.001035       -0.002500        0.000000       -0.000985       -0.002500        0.000000       -0.000934       -0.002500        0.000000       -0.000884       -0.002500        0.000000       -0.000833       -0.002500        0.000000       -0.000783       -0.002500        0.000000       -0.000732       -0.002500        0.000000       -0.000682       -0.002500        0.000000       -0.000631       -0.002500        0.000000       -0.000581       -0.002500        0.000000       -0.000530       -0.002500        0.000000       -0.000480       -0.002500        0.000000       -0.000429       -0.002500        0.000000       -0.000379       -0.002500        0.000000       -0.000328       -0.002500        0.000000       -0.000278       -0.002500        0.000000       -0.000227       -0.002500        0.000000       -0.000177       -0.002500        0.000000       -0.000126       -0.002500        0.000000       -0.000076       -0.002500        0.000000       -0.000025       -0.002500        0.000000        0.000025       -0.002500        0.000000        0.000076       -0.002500        0.000000        0.000126       -0.002500        0.000000        0.000177       -0.002500        0.000000        0.000227       -0.002500        0.000000        0.000278       -0.002500        0.000000        0.000328       -0.002500        0.000000        0.000379       -0.002500        0.000000        0.000429       -0.002500        0.000000        0.000480       -0.002500        0.000000        0.000530       -0.002500        0.000000        0.000581       -0.002500        0.000000        0.000631       -0.002500        0.000000        0.000682       -0.002500        0.000000        0.000732       -0.002500        0.000000        0.000783       -0.002500        0.000000        0.000833       -0.002500        0.000000        0.000884       -0.002500        0.000000        0.000934       -0.002500        0.000000        0.000985       -0.002500        0.000000        0.001035       -0.002500        0.000000        0.001086       -0.002500        0.000000        0.001136       -0.002500        0.000000        0.001187       -0.002500        0.000000        0.001237       -0.002500        0.000000        0.001288       -0.002500        0.000000        0.001338       -0.002500        0.000000        0.001389       -0.002500        0.000000        0.001439       -0.002500        0.000000        0.001490       -0.002500        0.000000        0.001540       -0.002500        0.000000        0.001591       -0.002500        0.000000        0.001641       -0.002500        0.000000        0.001692       -0.002500        0.000000        0.001742       -0.002500        0.000000        0.001793       -0.002500        0.000000        0.001843       -0.002500        0.000000        0.001894       -0.002500        0.000000        0.001944       -0.002500        0.000000        0.001995       -0.002500        0.000000        0.002045       -0.002500        0.000000        0.002096       -0.002500        0.000000        0.002146       -0.002500        0.000000        0.002197       -0.002500        0.000000        0.002247       -0.002500        0.000000        0.002298       -0.002500        0.000000        0.002348       -0.002500        0.000000        0.002399       -0.002500        0.000000        0.002449       -0.002500        0.000000        0.002500       -0.002500        0.000000
      -0.002500       -0.002449        0.000000       -0.002449       -0.002449        0.000000       -0.002399       -0.002449        0.000000       -0.002348       -0.002449        0.000000       -0.002298       -0.002449        0.000000       -0.002247       -0.002449        0.000000       -0.002197       -0.002449        0.000000       -0.002146       -0.002449        0.000000       -0.002096       -0.002449        0.000000       -0.002045       -0.002449        0.000000       -0.001995       -0.002449        0.000000       -0.001944       -0.002449        0.000000       -0.001894       -0.002449        0.000000       -0.001843       -0.002449        0.000000       -0.001793       -0.002449        0.000000       -0.001742       -0.002449        0.000000       -0.001692       -0.002449        0.000000       -0.001641       -0.002449        0.000000       -0.001591       -0.002449        0.000000       -0.001540       -0.002449        0.000000       -0.001490       -0.002449        0.000000       -0.001439       -0.002449        0.000000       -0.001389       -0.002449        0.000000       -0.001338       -0.002449        0.000000       -0.001288       -0.002449        0.000000       -0.001237       -0.002449        0.000000       -0.001187       -0.002449        0.000000       -0.001136       -0.002449        0.000000       -0.001086       -0.002449        0.000000       -0.001035       -0.002449        0.000000       -0.000985       -0.002449        0.000000       -0.000934       -0.002449        0.000000       -0.000884       -0.002449        0.000000       -0.000833       -0.002449        0.000000       -0.000783       -0.002449        0.000000       -0.000732       -0.002449        0.000000       -0.000682       -0.002449        0.000000       -0.000631       -0.002449        0.000000       -0.000581       -0.002449        0.000000       -0.000530       -0.002449        0.000000       -0.000480       -0.002449        0.000000       -0.000429       -0.002449        0.000000       -0.000379       -0.002449        0.000000       -0.000328       -0.002449        0.000000       -0.000278       -0.002449        0.000000       -0.000227       -0.002449        0.000000       -0.000177       -0.002449        0.000000       -0.000126       -0.002449        0.000000       -0.000076       -0.002449        0.000000       -0.000025       -0.002449        0.000000        0.000025       -0.002449        0.000000        0.000076       -0.002449        0.000000        0.000126       -0.002449        0.000000        0.000177       -0.002449        0.000000        0.000227       -0.002449        0.000000        0.000278       -0.002449        0.000000        0.000328       -0.002449        0.000000        0.000379       -0.002449        0.000000        0.000429       -0.002449        0.000000        0.000480       -0.002449        0.000000        0.000530       -0.002449        0.000000        0.000581       -0.002449        0.000000        0.000631       -0.002449        0.000000        0.000682       -0.002449        0.000000        0.000732       -0.002449        0.000000        0.000783       -0.002449        0.000000        0.000833       -0.002449        0.000000        0.000884       -0.002449        0.000000        0.000934       -0.002449        0.000000        0.000985       -0.002449        0.000000        0.001035       -0.002449        0.000000        0.001086       -0.002449        0.000000        0.001136       -0.002449        0.000000        0.001187       -0.002449        0.000000        0.001237       -0.002449        0.000000        0.001288       -0.002449        0.000000        0.001338       -0.002449        0.000000        0.001389       -0.002449        0.000000        0.001439       -0.002449        0.000000        0.001490       -0.002449        0.000000        0.001540       -0.002449        0.000000        0.001591       -0.002449        0.000000        0.001641       -0.002449        0.000000        0.001692       -0.002449        0.000000        0.001742       -0.002449        0.000000        0.001793       -0.002449        0.000000        0.001843       -0.002449        0.000000        0.001894       -0.002449        0.000000        0.001944       -0.002449        0.000000        0.001995       -0.002449        0.000000        0.002045       -0.002449        0.000000        0.002096       -0.002449        0.000000        0.002146       -0.002449        0.000000        0.002197       -0.002449        0.000000        0.002247       -0.002449        0.000000        0.002298       -0.002449        0.000000        0.002348       -0.002449        0.000000        0.002399       -0.002449        0.000000        0.002449       -0.002449        0.000000        0.002500       -0.002449        0.000000
[...]
<CellData Scalars="Temprature, U, V">
<DataArray type="Float32" Name="Temp, K"/>
     292.447466      294.095377      299.359211      314.625723      270.222153      434.810604      108.627198   -17794.736059     3893.425078   298181.894077  -375777.917719 -2390723.881210  6097355.275746  4969130.856664 *************** 79700890.543196  3444773.043599 *************** *************** *************** *************** *************** *************** *************** *************** *************** *************** *************** *************** *************** *************** *************** *************** *************** *************** *************** *************** *************** *************** *************** *************** *************** *************** *************** *************** *************** *************** *************** *************** *************** *************** *************** *************** *************** *************** *************** *************** *************** *************** *************** *************** *************** *************** *************** *************** *************** *************** *************** *************** *************** *************** *************** *************** *************** *************** *************** *************** *************** *************** *************** *************** *************** *************** *************** *************** *************** *************** *************** *************** 55455059.745601 34646464.256707 -6432998.081793 -1770586.670485   310012.525004    43459.309669     4462.329015     1944.690505     -443.792990     -594.210389
     290.710395      291.888050      292.572287      335.221184      352.255438     -541.997176     3241.749905     6151.206805  -104987.350823   112069.799840  1150934.141172 -3160942.014442 -3856989.386409 28270896.797796 *************** *************** *************** *************** *************** *************** *************** *************** *************** *************** *************** *************** *************** *************** *************** *************** *************** *************** *************** *************** *************** *************** *************** *************** *************** *************** *************** *************** *************** *************** *************** *************** *************** *************** *************** *************** *************** *************** *************** *************** *************** *************** *************** *************** *************** *************** *************** *************** *************** *************** *************** *************** *************** *************** *************** *************** *************** *************** *************** *************** *************** *************** *************** *************** *************** *************** *************** *************** *************** *************** *************** *************** *************** *************** 46557414.601211 *************** *************** -9903286.785926  2702578.794934   168448.785579  -109144.117466    16106.593472     -248.042235    -1536.545651     -406.575020
     289.617497      292.801591      291.680515      229.043726      676.202208      930.428738   -10849.799781    23728.035188   121027.023024  -627198.909981    15464.562820  5781175.816230 *************** *************** *************** *************** *************** *************** *************** *************** *************** *************** *************** *************** *************** *************** *************** *************** *************** *************** *************** *************** *************** *************** *************** *************** *************** *************** *************** *************** *************** *************** *************** *************** *************** *************** *************** *************** *************** *************** *************** *************** *************** *************** *************** *************** *************** *************** *************** *************** *************** *************** *************** *************** *************** *************** *************** *************** *************** *************** *************** *************** *************** *************** *************** *************** *************** *************** *************** *************** *************** *************** *************** *************** *************** *************** *************** *************** *************** *************** *************** 23495035.018312 -1252448.629009 -1374405.805790   259725.464972    21693.931092   -10826.381254      412.365666     -418.543256
     288.697949      286.812980      326.683612      314.401009     -857.420315     3689.615313    12624.287795   -91557.776955    82400.712195   870712.771177 -2898927.471883  -983321.824772 24084910.952719 *************** *************** *************** *************** *************** *************** *************** *************** *************** *************** *************** *************** *************** *************** *************** *************** *************** *************** *************** *************** *************** *************** *************** *************** *************** *************** *************** *************** *************** *************** *************** *************** *************** *************** *************** *************** *************** *************** *************** *************** *************** *************** *************** *************** *************** *************** *************** *************** *************** *************** *************** *************** *************** *************** *************** *************** *************** *************** *************** *************** *************** *************** *************** *************** *************** *************** *************** *************** *************** *************** *************** *************** *************** *************** *************** *************** -1685014.971594 *************** *************** -7305155.003775  3003812.118854     7293.805706  -167091.726677    20419.810526     2355.400798     -847.362022
     290.015720      286.208871      192.435282      712.076876     1390.851952   -11609.503875    18631.864236   114962.446347  -537319.887376   197622.486940  4456027.901706 *************** -4944475.937091 92885085.964418 *************** *************** *************** *************** *************** *************** *************** *************** *************** *************** *************** *************** *************** *************** *************** *************** *************** *************** *************** *************** *************** *************** *************** *************** *************** *************** *************** *************** *************** *************** *************** *************** *************** *************** *************** *************** *************** *************** *************** *************** *************** *************** *************** *************** *************** *************** *************** *************** *************** *************** *************** *************** *************** *************** *************** *************** *************** *************** *************** *************** *************** *************** *************** *************** *************** *************** *************** *************** *************** *************** *************** *************** *************** *************** *************** *************** *************** *************** 19485229.824639 -1810768.008231 -1261477.469287   344215.078048    16365.613324   -16844.712169      567.389267
     282.603673      332.362439      362.038444    -1063.788977     3250.252731    14089.438620   -84768.454557    76491.675382   715306.772287 -2614160.618432   435377.799864 19153905.754516 *************** *************** *************** *************** *************** *************** *************** *************** *************** *************** *************** *************** *************** *************** *************** *************** *************** *************** *************** *************** *************** *************** *************** *************** *************** *************** *************** *************** *************** *************** *************** *************** *************** *************** *************** *************** *************** *************** *************** *************** *************** *************** *************** *************** *************** *************** *************** *************** *************** *************** *************** *************** *************** *************** *************** *************** *************** *************** *************** *************** *************** *************** *************** *************** *************** *************** *************** *************** *************** *************** *************** *************** *************** *************** *************** *************** *************** *************** *************** 87130404.008268 *************** -5869872.991764  2877270.122107  -103130.829061  -177860.039708    33255.153661     2822.939791
     283.244028      155.158030      686.994051     1772.277641   -11590.624030    16116.799624   105204.086927  -483891.547414   297870.691936  3524595.597400 ***************  1038472.749019 73424325.778553 *************** *************** *************** *************** *************** *************** *************** *************** *************** *************** *************** *************** *************** *************** *************** *************** *************** *************** *************** *************** *************** *************** *************** *************** *************** *************** *************** *************** *************** *************** *************** *************** *************** *************** *************** *************** *************** *************** *************** *************** *************** *************** *************** *************** *************** *************** *************** *************** *************** *************** *************** *************** *************** *************** *************** *************** *************** *************** *************** *************** *************** *************** *************** *************** *************** *************** *************** *************** *************** *************** *************** *************** *************** *************** *************** *************** 57266995.091310 *************** *************** *************** 15890363.755135 -1763604.712957 -1109553.359750   380291.334294     1871.050109   -20549.819227
     337.907792      416.632485    -1181.706227     2855.901277    14510.915730   -79253.123969    76863.617031   597848.472294 -2346661.286061  1170260.917125 14806852.664696 ***************  1294501.514871 *************** *************** *************** *************** *************** *************** *************** *************** *************** *************** *************** *************** *************** *************** *************** *************** *************** *************** *************** *************** *************** *************** *************** *************** *************** *************** *************** *************** *************** *************** *************** *************** *************** *************** *************** *************** *************** *************** *************** *************** *************** *************** *************** *************** *************** *************** *************** *************** *************** *************** *************** *************** *************** *************** *************** *************** *************** *************** *************** *************** *************** *************** *************** *************** *************** *************** *************** *************** *************** *************** *************** *************** *************** *************** *************** *************** *************** *************** *************** 66012053.175054 *************** -4986869.458631  2580163.276810  -156804.719973  -172744.796510    41267.776868
     140.248741      653.042316     2038.720692   -11410.916867    14815.523507    95296.086766  -440035.248671   357255.177691  2790206.198364 -9914570.797628  4327576.695319 54716061.504004 *************** -9112417.538346 *************** *************** *************** *************** *************** *************** *************** *************** *************** *************** *************** *************** *************** *************** *************** *************** *************** *************** *************** *************** *************** *************** *************** *************** *************** *************** *************** *************** *************** *************** *************** *************** *************** *************** *************** *************** *************** *************** *************** *************** *************** *************** *************** *************** *************** *************** *************** *************** *************** *************** *************** *************** *************** *************** *************** *************** *************** *************** *************** *************** *************** *************** *************** *************** *************** *************** *************** *************** *************** *************** *************** *************** *************** *************** *************** *************** *************** *************** *************** *************** 12659335.184973 -1413171.533586  -983125.613574   379943.808904    -5203.603464
     384.745874    -1266.765453     2577.928096    14432.412137   -74499.182187    78314.838776   499367.663579 -2079401.943953  1550235.926125 11147956.932992 *************** 13786423.400195 *************** *************** *************** *************** *************** *************** *************** *************** *************** *************** *************** *************** *************** *************** *************** *************** *************** *************** *************** *************** *************** *************** *************** *************** *************** *************** *************** *************** *************** *************** *************** *************** *************** *************** *************** *************** *************** *************** *************** *************** *************** *************** *************** *************** *************** *************** *************** *************** *************** *************** *************** *************** *************** *************** *************** *************** *************** *************** *************** *************** *************** *************** *************** *************** *************** *************** *************** *************** *************** *************** *************** *************** *************** *************** *************** *************** *************** *************** *************** *************** *************** 48917268.331701 -7337550.112226 -4418261.716683  2211818.590112  -149707.088335  -162626.479630
     778.780810     2203.369438   -11217.476447    14196.876273    85475.318244  -399428.973077   389443.173436  2177830.671154 -8479463.041904  5970173.719758 38906019.754865 *************** 35945097.707039 *************** *************** *************** *************** *************** *************** *************** *************** *************** *************** *************** *************** *************** *************** *************** *************** *************** *************** *************** *************** *************** *************** *************** *************** *************** *************** *************** *************** *************** *************** *************** *************** *************** *************** *************** *************** *************** *************** *************** *************** *************** *************** *************** *************** *************** *************** *************** *************** *************** *************** *************** *************** *************** *************** *************** *************** *************** *************** *************** *************** *************** *************** *************** *************** *************** *************** *************** *************** *************** *************** *************** *************** *************** *************** *************** *************** *************** *************** *************** *************** *************** ***************  9758627.429841  -907447.702602  -901661.444268   326935.836873
   -1318.834789     2529.222694    14068.201706   -70089.507528    79789.491267   411937.902222 -1814520.230524  1721732.691355  8121487.967191 *************** 19870583.616854 *************** *************** 72802954.129478 *************** *************** *************** *************** *************** *************** *************** *************** *************** *************** *************** *************** *************** *************** *************** *************** *************** *************** *************** *************** *************** *************** *************** *************** *************** *************** *************** *************** *************** *************** *************** *************** *************** *************** *************** *************** *************** *************** *************** *************** *************** *************** *************** *************** *************** *************** *************** *************** *************** *************** *************** *************** *************** *************** *************** *************** *************** *************** *************** *************** *************** *************** *************** *************** *************** *************** *************** *************** *************** *************** *************** *************** ***************  3214602.657455 *************** *************** *************** *************** *************** *************** 34661434.779977 -3446867.698734 -4005305.575849  1809229.584747   -44476.145206