<?xml version="1.0"?>
<VTKFile type="StructuredGrid">
<StructuredGrid WholeExtent="     0    99     0    99     0     0">
<Piece Extent="     0    99     0    99     0     0">
<Points>
<DataArray type="Float32" NumberOfComponents="3"/>
      -0.002500       -0.002500        0.000000       -0.002449       -0.002500        0.000000       -0.002399       -0.002500        0.000000       -0.002348       -0.002500        0.000000       -0.002298       -0.002500        0.000000       -0.002247       -0.002500        0.000000       -0.002197       -0.002500        0.000000       -0.002146       -0.002500        0.000000       -0.002096       -0.002500        0.000000       -0.002045       -0.002500        0.000000       -0.001995       -0.002500        0.000000       -0.001944       -0.002500        0.000000       -0.001894       -0.002500        0.000000       -0.001843       -0.002500        0.000000       -0.001793       -0.002500        0.000000       -0.001742       -0.002500        0.000000       -0.001692       -0.002500        0.000000       -0.001641       -0.002500        0.000000       -0.001591       -0.002500        0.000000       -0.001540       -0.002500        0.000000       -0.001490       -0.002500        0.000000       -0.001439       -0.002500        0.000000       -0.001389       -0.002500        0.000000       -0.001338       -0.002500        0.000000       -0.001288       -0.002500        0.000000       -0.001237       -0.002500        0.000000       -0.001187       -0.002500        0.000000       -0.001136       -0.002500        0.000000       -0.001086       -0.002500        0.000000       -0.001035       -0.002500        0.000000       -0.000985       -0.002500        0.000000       -0.000934       -0.002500        0.000000       -0.000884       -0.002500        0.000000       -0.000833       -0.002500        0.000000       -0.000783       -0.002500        0.000000       -0.000732       -0.002500        0.000000       -0.000682       -0.002500        0.000000       -0.000631       -0.002500        0.000000       -0.000581       -0.002500        0.000000       -0.000530       -0.002500        0.000000       -0.000480       -0.002500        0.000000       -0.000429       -0.002500        0.000000       -0.000379       -0.002500        0.000000       -0.000328       -0.002500        0.000000       -0.000278       -0.002500        0.000000       -0.000227       -0.002500        0.000000       -0.000177       -0.002500        0.000000       -0.000126       -0.002500        0.000000       -0.000076       -0.002500        0.000000       -0.000025       -0.002500        0.000000        0.000025       -0.002500        0.000000        0.000076       -0.002500        0.000000        0.000126       -0.002500        0.000000        0.000177       -0.002500        0.000000        0.000227       -0.002500        0.000000        0.000278       -0.002500        0.000000        0.000328       -0.002500        0.000000        0.000379       -0.002500        0.000000        0.000429       -0.002500        0.000000        0.000480       -0.002500        0.000000        0.000530       -0.002500        0.000000        0.000581       -0.002500        0.000000        0.000631       -0.002500        0.000000        0.000682       -0.002500        0.000000        0.000732       -0.002500        0.000000        0.000783       -0.002500        0.000000        0.000833       -0.002500        0.000000        0.000884       -0.002500        0.000000        0.000934       -0.002500        0.000000        0.000985       -0.002500        0.000000        0.001035       -0.002500        0.000000        0.001086       -0.002500        0.000000        0.001136       -0.002500        0.000000        0.001187       -0.002500        0.000000        0.001237       -0.002500        0.000000        0.001288       -0.002500        0.000000        0.001338       -0.002500        0.000000        0.001389       -0.002500        0.000000        0.001439       -0.002500        0.000000        0.001490       -0.002500        0.000000        0.001540       -0.002500        0.000000        0.001591       -0.002500        0.000000        0.001641       -0.002500        0.000000        0.001692       -0.002500        0.000000        0.001742       -0.002500        0.000000        0.001793       -0.002500        0.000000        0.001843       -0.002500        0.000000        0.001894       -0.002500        0.000000        0.001944       -0.002500        0.000000        0.001995       -0.002500        0.000000        0.002045       -0.002500        0.000000        0.002096       -0.002500        0.000000        0.002146       -0.002500        0.000000        0.002197       -0.002500        0.000000        0.002247       -0.002500        0.000000        0.002298       -0.002500        0.000000        0.002348       -0.002500        0.000000        0.002399       -0.002500        0.000000        0.002449       -0.002500        0.000000        0.002500       -0.002500        0.000000
      -0.002500       -0.002449        0.000000       -0.002449       -0.002449        0.000000       -0.002399       -0.002449        0.000000       -0.002348       -0.002449        0.000000       -0.002298       -0.002449        0.000000       -0.002247       -0.002449        0.000000       -0.002197       -0.002449        0.000000       -0.002146       -0.002449        0.000000       -0.002096       -0.002449        0.000000       -0.002045       -0.002449        0.000000       -0.001995       -0.002449        0.000000       -0.001944       -0.002449        0.000000       -0.001894       -0.002449        0.000000       -0.001843       -0.002449        0.000000       -0.001793       -0.002449        0.000000       -0.001742       -0.002449        0.000000       -0.001692       -0.002449        0.000000       -0.001641       -0.002449        0.000000       -0.001591       -0.002449        0.000000       -0.001540       -0.002449        0.000000       -0.001490       -0.002449        0.000000       -0.001439       -0.002449        0.000000       -0.001389       -0.002449        0.000000       -0.001338       -0.002449        0.000000       -0.001288       -0.002449        0.000000       -0.001237       -0.002449        0.000000       -0.001187       -0.002449        0.000000       -0.001136       -0.002449        0.000000       -0.001086       -0.002449        0.000000       -0.001035       -0.002449        0.000000       -0.000985       -0.002449        0.000000       -0.000934       -0.002449        0.000000       -0.000884       -0.002449        0.000000       -0.000833       -0.002449        0.000000       -0.000783       -0.002449        0.000000       -0.000732       -0.002449        0.000000       -0.000682       -0.002449        0.000000       -0.000631       -0.002449        0.000000       -0.000581       -0.002449        0.000000       -0.000530       -0.002449        0.000000       -0.000480       -0.002449        0.000000       -0.000429       -0.002449        0.000000       -0.000379       -0.002449        0.000000       -0.000328       -0.002449        0.000000       -0.000278       -0.002449        0.000000       -0.000227       -0.002449        0.000000       -0.000177       -0.002449        0.000000       -0.000126       -0.002449        0.000000       -0.000076       -0.002449        0.000000       -0.000025       -0.002449        0.000000        0.000025       -0.002449        0.000000        0.000076       -0.002449        0.000000        0.000126       -0.002449        0.000000        0.000177       -0.002449        0.000000        0.000227       -0.002449        0.000000        0.000278       -0.002449        0.000000        0.000328       -0.002449        0.000000        0.000379       -0.002449        0.000000        0.000429       -0.002449        0.000000        0.000480       -0.002449        0.000000        0.000530       -0.002449        0.000000        0.000581       -0.002449        0.000000        0.000631       -0.002449        0.000000        0.000682       -0.002449        0.000000        0.000732       -0.002449        0.000000        0.000783       -0.002449        0.000000        0.000833       -0.002449        0.000000        0.000884       -0.002449        0.000000        0.000934       -0.002449        0.000000        0.000985       -0.002449        0.000000        0.001035       -0.002449        0.000000        0.001086       -0.002449        0.000000        0.001136       -0.002449        0.000000        0.001187       -0.002449        0.000000        0.001237       -0.002449        0.000000        0.001288       -0.002449        0.000000        0.001338       -0.002449        0.000000        0.001389       -0.002449        0.000000        0.001439       -0.002449        0.000000        0.001490       -0.002449        0.000000        0.001540       -0.002449        0.000000        0.001591       -0.002449        0.000000        0.001641       -0.002449        0.000000        0.001692       -0.002449        0.000000        0.001742       -0.002449        0.000000        0.001793       -0.002449        0.000000        0.001843       -0.002449        0.000000        0.001894       -0.002449        0.000000        0.001944       -0.002449        0.000000        0.001995       -0.002449        0.000000        0.002045       -0.002449        0.000000        0.002096       -0.002449        0.000000        0.002146       -0.002449        0.000000        0.002197       -0.002449        0.000000        0.002247       -0.002449        0.000000        0.002298       -0.002449        0.000000        0.002348       -0.002449        0.000000        0.002399       -0.002449        0.000000        0.002449       -0.002449        0.000000        0.002500       -0.002449        0.000000
[...]
<CellData Scalars="Temprature, U, V">
<DataArray type="Float32" Name="Temp, K"/>
     292.630739      294.547678      299.344594      300.001352      240.537901       90.698452      248.510787      998.243841       28.055192    -3776.265939      396.621277    16202.866659     3459.461306   -59157.443386   -32921.850340   237346.714276   163336.481186 -1113980.009720  -538562.283234  5650519.914309  2230475.044194 *************** *************** *************** *************** *************** *************** *************** *************** *************** *************** *************** *************** *************** *************** *************** *************** *************** *************** *************** *************** *************** *************** *************** *************** *************** *************** *************** *************** *************** *************** *************** *************** *************** *************** *************** *************** *************** *************** *************** *************** *************** *************** *************** *************** *************** *************** *************** *************** *************** 31477259.520934 *************** *************** *************** *************** *************** *************** *************** *************** *************** *************** *************** *************** 17374366.643486 47194043.179621 -6359913.194079 ***************  2359011.953424  4607945.467669  -763008.093512 -1015446.142305   188082.364439   177033.974572   -31478.814210   -24995.187213     3264.011218     3544.308577      390.121069     -487.888567
     291.109969      292.412178      297.285845      316.362392      318.562293       97.313300     -268.292362      660.658194     2296.484041    -2574.669874    -9526.356499     9340.284558    37695.973272   -19814.623268  -154203.934407    23846.770441   698291.052542  -132666.218589 -3288365.567324  1402170.802448 15512832.973424 -6622006.661768 *************** -3748700.695352 *************** *************** *************** *************** *************** *************** *************** *************** *************** *************** *************** *************** *************** *************** *************** *************** *************** *************** *************** *************** *************** *************** *************** *************** *************** *************** *************** *************** *************** *************** *************** *************** *************** *************** *************** *************** *************** *************** *************** *************** *************** *************** *************** *************** *************** *************** *************** *************** *************** *************** *************** *************** *************** *************** *************** *************** 63371713.752290 *************** *************** 96492338.459966 20522701.330275 *************** -6034980.494532 12207815.324232  1053392.579735 -3168733.307387   -43857.086908   642699.349697   -24279.808079  -100641.244048     4805.786215    13180.524141      809.759178    -1367.919450     -669.516052
     290.606756      292.651319      292.392934      283.102508      328.011886      497.059800      119.612560    -1245.361430      604.105683     6458.262337    -2099.548780   -23940.487002      832.774603    87443.126794    49491.125978  -374613.302297  -326057.385314  1841371.957593  1235866.066408 -8919542.834172 -4234378.813765 39443172.227332 23925562.354532 *************** *************** *************** *************** 29345117.729563 *************** *************** *************** *************** *************** *************** *************** *************** *************** *************** *************** *************** *************** *************** *************** *************** *************** *************** *************** *************** *************** *************** *************** *************** *************** *************** *************** *************** *************** *************** *************** *************** *************** *************** *************** *************** *************** *************** *************** *************** *************** *************** *************** *************** *************** *************** *************** *************** *************** *************** *************** *************** *************** *************** ***************  8277348.904442 ***************  -687515.987706 26803205.729572 -1564626.102380 -7723286.094898  1060570.546553  1719354.513668  -368670.719033  -286736.529758    79090.368936    36676.629383    -9626.612972    -3750.449536      229.229570     -176.937583
     289.465080      290.038925      298.108324      305.441308      229.476033      250.110299      957.329819      550.324756    -3501.169400     -909.992631    14319.394557     5242.995282   -45011.697408   -50244.582923   155104.048011   353449.003362  -747451.418115 -1749976.879549  3992801.800758  7104250.326585 *************** *************** 71371270.503621 *************** *************** *************** 98235653.820952 *************** *************** *************** *************** *************** *************** *************** *************** *************** *************** *************** *************** *************** *************** *************** *************** *************** *************** *************** *************** *************** *************** *************** *************** *************** *************** *************** *************** *************** *************** *************** *************** *************** *************** *************** *************** *************** *************** *************** *************** *************** *************** *************** *************** *************** *************** *************** *************** *************** *************** *************** *************** *************** 60195543.677532 *************** *************** *************** 17026164.824920 50479548.344145 *************** ***************  4621976.242367  3833000.117538 -1551664.985189  -649253.086436   366562.907769    70032.705786   -57657.993847    -3701.799752     5464.046908     -471.674187     -759.630688
     289.588955      289.955410      282.818257      307.572647      380.099477      101.570026     -154.242172     1946.739419     2135.052680    -7562.782356    -6035.957820    23210.703936    31243.339318   -48119.716289  -222853.304266   143923.733824  1311870.998798 -1001008.482255 -6061945.615666  6192901.471402 24210655.643846 *************** *************** 75267362.189719 *************** *************** *************** *************** *************** *************** *************** *************** *************** *************** *************** *************** *************** *************** *************** *************** *************** *************** *************** *************** *************** *************** *************** *************** *************** *************** *************** *************** *************** *************** *************** *************** *************** *************** *************** *************** *************** *************** *************** *************** *************** *************** *************** *************** *************** *************** *************** *************** *************** *************** *************** *************** *************** *************** *************** *************** *************** *************** *************** 54309665.494636 83545093.062261 *************** *************** 13177126.645687  7368297.966149 -4657133.108487 -1203901.082685  1210108.085545    65653.493758  -216507.932687    20242.137052    24254.660181    -5861.035674    -1986.884281      199.090633
     287.732680      292.674253      297.123556      248.543591      305.618689      653.033872     -138.374932    -1379.211063     3750.833159     5741.569792   -12285.574783   -16108.637926    14480.895515    93678.800987    71604.182006  -669758.194457  -347643.398367  3720033.108195   240894.495489 ***************  3216083.858937 61160096.870481 *************** *************** *************** *************** *************** *************** *************** *************** *************** *************** *************** *************** *************** *************** *************** *************** *************** *************** *************** *************** *************** *************** *************** *************** *************** *************** *************** *************** *************** *************** *************** *************** *************** *************** *************** *************** *************** *************** *************** *************** *************** *************** *************** *************** *************** *************** *************** *************** *************** *************** *************** *************** *************** *************** *************** *************** *************** *************** *************** *************** *************** *************** *************** *************** 30151238.425743 12456116.357436 *************** -1820039.623950  3274013.766588  -132805.567264  -650282.357079   139641.759908    77880.578501   -33973.483815    -3921.009967     3734.875007     -584.953155
     287.228337      282.111844      302.237235      334.620547      128.888175      237.924465     1433.291449     -583.961979    -4018.530295     6628.648794     9905.406060   -10528.414850   -21759.921681   -76320.795914   193808.501736   626341.444589 -1570896.695686 -2471449.802672  8521817.420012  6880761.013873 *************** *************** *************** 68496310.810964 *************** *************** *************** *************** *************** *************** *************** *************** *************** *************** *************** *************** *************** *************** *************** *************** *************** *************** *************** *************** *************** *************** *************** *************** *************** *************** *************** *************** *************** *************** *************** *************** *************** *************** *************** *************** *************** *************** *************** *************** *************** *************** *************** *************** *************** *************** 96568069.184238 *************** *************** *************** *************** *************** *************** *************** *************** *************** *************** *************** *************** *************** *************** 59131576.705033 18757087.508179 *************** -2127670.005687  7658911.910440  -874425.664141 -1682308.948843   534857.523992   211792.153141  -138046.674671    -2873.740446    18607.566492    -3880.021969    -1501.607115
     289.920142      290.467618      257.027093      329.529992      473.392015     -232.225305       32.381390     3275.595929    -1832.318008    -7448.721710    11252.203298     1749.659797    19243.484877    29750.350572  -413946.011087   223888.891790  2339450.898246 -2838784.456923 -8715538.366309 15628934.373074 26576978.354775 *************** *************** *************** *************** *************** *************** *************** *************** *************** *************** *************** *************** *************** *************** *************** *************** *************** *************** *************** *************** *************** *************** *************** *************** *************** *************** *************** *************** *************** *************** *************** *************** *************** *************** *************** *************** *************** *************** *************** *************** *************** *************** *************** *************** *************** *************** *************** *************** *************** *************** *************** *************** *************** *************** *************** *************** *************** *************** *************** *************** *************** *************** *************** *************** 25402730.340372 *************** -1514971.858127 15923256.888309 -2754469.300354 -3879938.889589  1572344.580453   520910.667904  -450568.277911    13808.070439    70586.086257   -19846.061557    -4833.797278     2600.510704
     282.818590      299.998958      305.268983      162.433243      418.594137      866.816839    -1253.292048      -67.942029     6868.697149    -6930.414805    -5193.459703    21844.058306   -67403.271763   121686.057170   315615.148052 -1324159.115100  -271591.837788  6513842.285526 -3357864.030612 *************** 21392740.204042 69568733.186002 *************** *************** *************** *************** *************** *************** *************** *************** *************** *************** *************** *************** *************** *************** *************** *************** *************** *************** *************** *************** *************** *************** *************** *************** *************** *************** *************** *************** *************** *************** *************** *************** *************** *************** *************** *************** *************** *************** *************** *************** *************** *************** *************** *************** *************** *************** *************** *************** *************** *************** *************** *************** *************** *************** *************** *************** *************** *************** *************** *************** *************** *************** 31203215.559490 ***************   698226.751423 29911564.820639 -6553378.743886 -8128750.379156  3861297.599091  1200360.510440 -1249210.570072    70448.459702   228476.892286   -76238.270199   -16041.565355    14653.550878    -1815.739858
     282.665353      263.880077      339.263823      347.757391     -143.293422      767.232547     1697.375560    -4082.517590     1985.023399    12358.653683   -27614.258276    26647.281714    58309.791645  -332738.811461   355035.228480  1290571.523721 -3282617.996777 -2519289.575779 14855207.129998   193040.228675 *************** 15764289.024001 *************** *************** *************** 52550241.427822 *************** *************** *************** *************** *************** *************** *************** *************** *************** *************** *************** *************** *************** *************** *************** *************** *************** *************** *************** *************** *************** *************** *************** *************** *************** *************** *************** *************** *************** *************** *************** *************** *************** *************** *************** *************** *************** *************** *************** *************** *************** *************** *************** *************** ***************  5827318.303219 *************** *************** *************** *************** *************** *************** *************** *************** *************** *************** *************** 35070634.472286 ***************  4910100.537347 51321679.013517 *************** ***************  8214914.708543  2630338.242778 -3024423.815720   186623.582665   651909.647740  -235232.077407   -54949.172547    57131.772895    -8727.555593    -5659.455831
     297.825559      282.150694      200.649376      488.646744      407.476723    -1014.219177     2192.838103     2688.557972   -11875.588632    14681.525772    17726.107688  -100248.575758   150908.529888   190139.288693 -1094614.504089   720899.279305  3889437.044687 -6679123.179798 -8982474.205612 28501804.726657 14243975.266612 *************** *************** *************** 49117143.812939 *************** *************** *************** *************** *************** *************** *************** *************** *************** *************** *************** *************** *************** *************** *************** *************** *************** *************** *************** *************** *************** *************** *************** *************** *************** *************** *************** *************** *************** *************** *************** *************** *************** *************** *************** *************** *************** *************** *************** *************** *************** *************** *************** *************** *************** *************** *************** *************** *************** *************** *************** *************** *************** *************** *************** *************** *************** 36415227.915720 *************** 10855345.672557 81041304.675624 *************** *************** 15435839.717032  5478652.897660 -6493027.040648   315073.471280  1659000.295215  -603583.420087  -182238.533983   184226.814747   -26684.789254   -23305.716891     9466.212746
     278.683330      339.974243      259.212814       15.949363     1029.402999      233.436330    -3230.756954     7600.708840     1314.285295   -32992.786182    64202.279563    16822.076949  -318799.626486   497191.729468   608356.946165 -2896528.146629   984617.596281  9656004.519876 *************** *************** 46232031.119908 47507648.350848 *************** *************** *************** *************** *************** *************** *************** *************** 57034918.415519 *************** *************** *************** *************** *************** *************** *************** *************** *************** *************** *************** *************** *************** *************** *************** *************** *************** *************** *************** *************** *************** *************** *************** *************** *************** *************** *************** *************** *************** *************** *************** *************** *************** *************** *************** *************** *************** *************** *************** *************** *************** *************** 80282531.755961 *************** *************** *************** *************** *************** *************** *************** 35222199.238827 *************** 17448396.483984 *************** *************** *************** 25907495.399853 10754858.025199 ***************   216440.471881  3783842.870946 -1308028.375206  -552914.063082   506878.496911   -55532.319054   -83932.035977    38647.884844     1751.833497