<?xml version="1.0"?>
<VTKFile type="StructuredGrid">
<StructuredGrid WholeExtent="     0    99     0    99     0     0">
<Piece Extent="     0    99     0    99     0     0">
<Points>
<DataArray type="Float32" NumberOfComponents="3"/>
      -0.002500       -0.002500        0.000000       -0.002449       -0.002500        0.000000       -0.002399       -0.002500        0.000000       -0.002348       -0.002500        0.000000       -0.002298       -0.002500        0.000000       -0.002247       -0.002500        0.000000       -0.002197       -0.002500        0.000000       -0.002146       -0.002500        0.000000       -0.002096       -0.002500        0.000000       -0.002045       -0.002500        0.000000       -0.001995       -0.002500        0.000000       -0.001944       -0.002500        0.000000       -0.001894       -0.002500        0.000000       -0.001843       -0.002500        0.000000       -0.001793       -0.002500        0.000000       -0.001742       -0.002500        0.000000       -0.001692       -0.002500        0.000000       -0.001641       -0.002500        0.000000       -0.001591       -0.002500        0.000000       -0.001540       -0.002500        0.000000       -0.001490       -0.002500        0.000000       -0.001439       -0.002500        0.000000       -0.001389       -0.002500        0.000000       -0.001338       -0.002500        0.000000       -0.001288       -0.002500        0.000000       -0.001237       -0.002500        0.000000       -0.001187       -0.002500        0.000000       -0.001136       -0.002500        0.000000       -0.001086       -0.002500        0.000000       -0.001035       -0.002500        0.000000       -0.000985       -0.002500        0.000000       -0.000934       -0.002500        0.000000       -0.000884       -0.002500        0.000000       -0.000833       -0.002500        0.000000       -0.000783       -0.002500        0.000000       -0.000732       -0.002500        0.000000       -0.000682       -0.002500        0.000000       -0.000631       -0.002500        0.000000       -0.000581       -0.002500        0.000000       -0.000530       -0.002500        0.000000       -0.000480       -0.002500        0.000000       -0.000429       -0.002500        0.000000       -0.000379       -0.002500        0.000000       -0.000328       -0.002500        0.000000       -0.000278       -0.002500        0.000000       -0.000227       -0.002500        0.000000       -0.000177       -0.002500        0.000000       -0.000126       -0.002500        0.000000       -0.000076       -0.002500        0.000000       -0.000025       -0.002500        0.000000        0.000025       -0.002500        0.000000        0.000076       -0.002500        0.000000        0.000126       -0.002500        0.000000        0.000177       -0.002500        0.000000        0.000227       -0.002500        0.000000        0.000278       -0.002500        0.000000        0.000328       -0.002500        0.000000        0.000379       -0.002500        0.000000        0.000429       -0.002500        0.000000        0.000480       -0.002500        0.000000        0.000530       -0.002500        0.000000        0.000581       -0.002500        0.000000        0.000631       -0.002500        0.000000        0.000682       -0.002500        0.000000        0.000732       -0.002500        0.000000        0.000783       -0.002500        0.000000        0.000833       -0.002500        0.000000        0.000884       -0.002500        0.000000        0.000934       -0.002500        0.000000        0.000985       -0.002500        0.000000        0.001035       -0.002500        0.000000        0.001086       -0.002500        0.000000        0.001136       -0.002500        0.000000        0.001187       -0.002500        0.000000        0.001237       -0.002500        0.000000        0.001288       -0.002500        0.000000        0.001338       -0.002500        0.000000        0.001389       -0.002500        0.000000        0.001439       -0.002500        0.000000        0.001490       -0.002500        0.000000        0.001540       -0.002500        0.000000        0.001591       -0.002500        0.000000        0.001641       -0.002500        0.000000        0.001692       -0.002500        0.000000        0.001742       -0.002500        0.000000        0.001793       -0.002500        0.000000        0.001843       -0.002500        0.000000        0.001894       -0.002500        0.000000        0.001944       -0.002500        0.000000        0.001995       -0.002500        0.000000        0.002045       -0.002500        0.000000        0.002096       -0.002500        0.000000        0.002146       -0.002500        0.000000        0.002197       -0.002500        0.000000        0.002247       -0.002500        0.000000        0.002298       -0.002500        0.000000        0.002348       -0.002500        0.000000        0.002399       -0.002500        0.000000        0.002449       -0.002500        0.000000        0.002500       -0.002500        0.000000
      -0.002500       -0.002449        0.000000       -0.002449       -0.002449        0.000000       -0.002399       -0.002449        0.000000       -0.002348       -0.002449        0.000000       -0.002298       -0.002449        0.000000       -0.002247       -0.002449        0.000000       -0.002197       -0.002449        0.000000       -0.002146       -0.002449        0.000000       -0.002096       -0.002449        0.000000       -0.002045       -0.002449        0.000000       -0.001995       -0.002449        0.000000       -0.001944       -0.002449        0.000000       -0.001894       -0.002449        0.000000       -0.001843       -0.002449        0.000000       -0.001793       -0.002449        0.000000       -0.001742       -0.002449        0.000000       -0.001692       -0.002449        0.000000       -0.001641       -0.002449        0.000000       -0.001591       -0.002449        0.000000       -0.001540       -0.002449        0.000000       -0.001490       -0.002449        0.000000       -0.001439       -0.002449        0.000000       -0.001389       -0.002449        0.000000       -0.001338       -0.002449        0.000000       -0.001288       -0.002449        0.000000       -0.001237       -0.002449        0.000000       -0.001187       -0.002449        0.000000       -0.001136       -0.002449        0.000000       -0.001086       -0.002449        0.000000       -0.001035       -0.002449        0.000000       -0.000985       -0.002449        0.000000       -0.000934       -0.002449        0.000000       -0.000884       -0.002449        0.000000       -0.000833       -0.002449        0.000000       -0.000783       -0.002449        0.000000       -0.000732       -0.002449        0.000000       -0.000682       -0.002449        0.000000       -0.000631       -0.002449        0.000000       -0.000581       -0.002449        0.000000       -0.000530       -0.002449        0.000000       -0.000480       -0.002449        0.000000       -0.000429       -0.002449        0.000000       -0.000379       -0.002449        0.000000       -0.000328       -0.002449        0.000000       -0.000278       -0.002449        0.000000       -0.000227       -0.002449        0.000000       -0.000177       -0.002449        0.000000       -0.000126       -0.002449        0.000000       -0.000076       -0.002449        0.000000       -0.000025       -0.002449        0.000000        0.000025       -0.002449        0.000000        0.000076       -0.002449        0.000000        0.000126       -0.002449        0.000000        0.000177       -0.002449        0.000000        0.000227       -0.002449        0.000000        0.000278       -0.002449        0.000000        0.000328       -0.002449        0.000000        0.000379       -0.002449        0.000000        0.000429       -0.002449        0.000000        0.000480       -0.002449        0.000000        0.000530       -0.002449        0.000000        0.000581       -0.002449        0.000000        0.000631       -0.002449        0.000000        0.000682       -0.002449        0.000000        0.000732       -0.002449        0.000000        0.000783       -0.002449        0.000000        0.000833       -0.002449        0.000000        0.000884       -0.002449        0.000000        0.000934       -0.002449        0.000000        0.000985       -0.002449        0.000000        0.001035       -0.002449        0.000000        0.001086       -0.002449        0.000000        0.001136       -0.002449        0.000000        0.001187       -0.002449        0.000000        0.001237       -0.002449        0.000000        0.001288       -0.002449        0.000000        0.001338       -0.002449        0.000000        0.001389       -0.002449        0.000000        0.001439       -0.002449        0.000000        0.001490       -0.002449        0.000000        0.001540       -0.002449        0.000000        0.001591       -0.002449        0.000000        0.001641       -0.002449        0.000000        0.001692       -0.002449        0.000000        0.001742       -0.002449        0.000000        0.001793       -0.002449        0.000000        0.001843       -0.002449        0.000000        0.001894       -0.002449        0.000000        0.001944       -0.002449        0.000000        0.001995       -0.002449        0.000000        0.002045       -0.002449        0.000000        0.002096       -0.002449        0.000000        0.002146       -0.002449        0.000000        0.002197       -0.002449        0.000000        0.002247       -0.002449        0.000000        0.002298       -0.002449        0.000000        0.002348       -0.002449        0.000000        0.002399       -0.002449        0.000000        0.002449       -0.002449        0.000000        0.002500       -0.002449        0.000000
[...]
<CellData Scalars="Temprature, U, V">
<DataArray type="Float32" Name="Temp, K"/>
     292.641951      294.579812      299.171926      298.235051      240.536448      116.388008      275.226865      838.064862     -107.330290    -2853.911804     1095.294392    12170.090832     -596.796657   -43631.710177    -7978.375857   170046.221649    31046.559684  -754015.078934    62245.953443  3674620.084566  -549916.044154 *************** -4832715.780829 72449201.713932 83211708.747868 *************** *************** *************** *************** *************** *************** *************** *************** *************** *************** *************** *************** *************** *************** *************** *************** *************** *************** *************** *************** *************** *************** *************** *************** *************** *************** *************** *************** *************** *************** *************** *************** *************** *************** *************** *************** *************** *************** *************** *************** 78509846.479851 *************** *************** *************** *************** -9507373.226227 *************** *************** *************** *************** *************** *************** *************** *************** 62985565.730555 *************** *************** ***************  6138284.726215 33710196.947314 -2055415.332358 ***************   909595.521771  3606979.773381  -368002.313389  -841893.830992   107481.770296   155864.423200   -19993.426354   -23133.263851     2209.608064     3398.815497      441.684648     -476.453922
     291.132087      292.460462      297.691032      315.908652      309.957727      100.723228     -170.029055      666.752152     1728.133582    -2453.455385    -6795.247205     8980.029168    26666.521652   -23563.941787  -106795.344295    64566.458067   456610.732800  -328048.488794 -2006123.661572  2031227.258485  9161508.817732 -9126896.367494 *************** 16468847.516527 *************** *************** *************** *************** *************** *************** *************** *************** *************** *************** *************** *************** *************** *************** *************** *************** *************** *************** *************** *************** *************** *************** *************** *************** *************** *************** *************** *************** *************** *************** *************** *************** *************** *************** *************** *************** *************** *************** *************** *************** *************** *************** *************** *************** *************** *************** *************** *************** *************** *************** *************** *************** *************** *************** *************** *************** 60784528.677047 *************** *************** 63876191.173813 19747000.107390 *************** -6500659.591041  8813210.414875  1467107.309480 -2429782.602511  -200353.915588   527827.952463    10738.683665   -88720.002492       35.817558    12358.857306     1192.443846    -1313.739725     -685.802461
     290.663412      292.583523      291.811837      285.411181      335.184371      463.293341       66.711342     -958.066716      860.203213     4951.865812    -2956.178564   -18024.765802     6162.697074    67036.186161     7381.338960  -282866.044353   -74211.732289  1306998.193731    87597.197535 -5986007.764047   432607.670676 26042973.594184  3444159.309948 *************** *************** *************** *************** *************** *************** *************** *************** *************** *************** *************** *************** 54738771.595006 *************** *************** *************** *************** *************** *************** *************** *************** *************** *************** *************** *************** *************** *************** *************** *************** *************** *************** *************** *************** *************** *************** *************** *************** *************** *************** *************** *************** *************** *************** *************** *************** *************** *************** *************** *************** *************** *************** *************** *************** *************** 41960510.870347 *************** 18123126.997337 *************** *************** *************** 16142347.588312 *************** -5112589.296228 19643639.460968   485910.357077 -6021705.411992   361196.805432  1445889.954211  -201939.224051  -263614.527372    52647.129986    36994.842794    -6992.648722    -4000.944013       68.110046     -159.084966
     289.494902      290.403263      298.342470      300.277574      233.890812      298.670646      871.633265      267.678209    -2829.981825      208.528681    11412.860428     1058.085372   -37454.936352   -24672.218238   139774.872516   180634.386717  -652904.860610  -812208.623402  3187398.585407  2936497.399053 *************** *************** 53423309.538175 61146699.709531 *************** *************** *************** *************** *************** *************** *************** *************** *************** *************** *************** *************** *************** *************** *************** *************** *************** *************** *************** *************** *************** *************** *************** *************** *************** *************** *************** *************** *************** *************** *************** *************** *************** *************** *************** *************** *************** *************** *************** *************** *************** *************** *************** *************** *************** *************** *************** *************** *************** *************** *************** *************** *************** *************** *************** *************** 11467758.640482 *************** -1762220.444132 ***************  3349468.625309 37607264.423041 -3883702.852143 ***************  2444122.963773  3329517.896632  -984492.872345  -639331.314832   265705.392917    84620.145966   -46664.966468    -6945.355903     4870.594090     -152.268832     -751.001133
     289.579474      289.441016      284.491046      312.055751      355.599045       96.252967       39.459824     1786.147013     1219.167453    -6348.385666    -3077.127991    20248.036305    20019.289531   -55685.275081  -145334.175352   221626.432823   792770.374759 -1217875.045537 -3372940.755853  6131877.593586 12833121.638516 *************** *************** 72839636.897937 *************** *************** *************** *************** *************** *************** *************** *************** *************** *************** *************** *************** *************** *************** *************** *************** *************** *************** *************** *************** *************** *************** *************** *************** *************** *************** *************** *************** *************** *************** *************** *************** *************** *************** *************** *************** *************** *************** *************** *************** *************** *************** *************** *************** *************** *************** *************** *************** *************** *************** *************** *************** *************** *************** *************** 77322250.930344 *************** *************** *************** 23604070.102453 63468583.434505 *************** ***************  7705293.502331  6685688.676910 -3093621.573632 -1324750.607654   902530.894477   146836.177680  -181416.514939     1933.019686    23289.301877    -3753.978930    -2238.476156       85.150874
     288.058732      292.903468      293.200949      254.229664      332.847040      565.102663     -202.686777     -796.088400     3503.609080     3662.363053   -10804.431525   -11751.729716    20245.769872    76564.164178   -18079.757571  -497236.622755   134500.426918  2489356.283256 -1421693.685089 ***************  7795802.137688 36966917.063660 *************** *************** 34006921.977560 *************** *************** *************** *************** *************** *************** *************** *************** *************** *************** *************** *************** *************** *************** *************** *************** *************** *************** *************** *************** *************** *************** *************** *************** *************** *************** *************** *************** *************** *************** *************** *************** *************** *************** *************** *************** *************** *************** *************** *************** *************** *************** *************** *************** *************** *************** *************** *************** *************** *************** *************** *************** *************** *************** *************** *************** *************** 59267730.787081 95952220.179753 *************** *************** 18411392.593425 11967758.705910 -7770877.728577 -2407216.090231  2475585.874788   168760.293487  -556497.126779    65408.947530    79633.720807   -24198.512308    -6198.166843     3199.965561     -316.476233
     286.917087      283.695229      304.663294      315.352275      145.779628      347.744974     1164.446464     -799.447519    -2628.162959     6075.922370     7269.038257   -10154.557578   -26152.104239   -32469.374990   205434.294718   261462.954397 -1322507.060701  -753474.874133  6280306.879302   864861.195777 ***************   395462.154052 80362121.202636  9647644.215100 *************** *************** *************** *************** *************** *************** *************** *************** *************** *************** *************** *************** *************** *************** *************** *************** *************** *************** *************** *************** *************** *************** *************** *************** *************** *************** *************** *************** *************** *************** *************** *************** *************** *************** *************** *************** *************** *************** *************** *************** *************** *************** *************** *************** *************** *************** *************** *************** *************** *************** *************** *************** *************** *************** *************** *************** *************** *************** *************** *************** *************** 36969250.832615 19396121.366994 *************** -3910260.691225  5833273.091675    12918.038195 -1460739.174473   291540.487784   229975.435124  -101268.741818   -14758.145130    16668.844779    -2080.495633    -1672.465124
     289.749483      287.416457      263.911900      341.956826      398.116089     -176.447575      362.274701     2522.560567    -2091.389585    -4926.604023     8582.675309     5318.636334    16606.478116   -29142.902006  -261177.601089   419529.796081  1263066.176100 -2852138.475944 -4016432.700582 12967258.077913 10584670.112723 *************** *************** *************** *************** *************** *************** *************** *************** *************** *************** *************** *************** *************** *************** *************** *************** *************** *************** *************** *************** *************** *************** *************** *************** *************** *************** *************** *************** *************** *************** *************** *************** *************** *************** *************** *************** *************** *************** *************** *************** *************** *************** *************** *************** *************** *************** *************** *************** *************** *************** *************** *************** *************** *************** *************** *************** *************** *************** *************** *************** *************** *************** *************** 65072554.627283 28814863.952629 *************** -5783687.675089 12166816.257790  -552805.645030 -3398522.195735   894136.339459   594106.272582  -331836.223196   -32503.351976    63962.593116   -11320.498105    -6232.661298     2027.676632
     284.524561      300.424726      290.672531      191.018393      459.829149      617.550289    -1021.780246      650.694889     4821.127491    -5595.905116    -2509.613395     8200.678894   -30755.872110   121886.658385    58520.712112  -938253.031806   583095.877000  3958354.385859 -4867713.874901 *************** 21505584.336206 35595659.875825 *************** *************** *************** *************** *************** *************** *************** *************** *************** *************** *************** *************** *************** *************** *************** *************** *************** *************** *************** *************** *************** *************** *************** *************** *************** *************** *************** *************** *************** *************** *************** *************** *************** *************** *************** *************** *************** *************** *************** *************** *************** *************** *************** *************** *************** *************** *************** ***************  2285402.312845 *************** *************** *************** *************** *************** *************** *************** *************** *************** *************** *************** *************** *************** 39665816.909909 *************** -7960267.401447 22856451.235030 -1798958.460173 -7139614.583417  2209660.094458  1408075.407234  -911528.624007   -75699.606419   205801.015874   -43388.446923   -22316.834068    11858.065817     -409.695991
     281.265841      271.724164      339.985108      292.893538      -29.307362      844.447264      978.182345    -3041.374200     2788.989114     6726.246914   -16834.067350    24202.609829     1346.993375  -186394.130051   404989.045660   476422.614804 -2535962.624927   131259.181599  9852043.033996 -5842809.893561 *************** 26617537.530165 83497786.904886 *************** *************** *************** *************** 30813795.616198 *************** *************** *************** *************** *************** *************** *************** *************** *************** *************** *************** *************** *************** *************** *************** *************** *************** *************** *************** *************** *************** *************** *************** *************** *************** *************** *************** *************** *************** *************** *************** *************** *************** *************** *************** *************** *************** *************** *************** *************** *************** *************** *************** 92370908.405360 *************** *************** *************** *************** *************** *************** *************** *************** *************** *************** *************** 51098287.493553 *************** *************** 39109602.195215 -3881718.619346 ***************  4642713.825521  3092440.444418 -2167180.868747  -201120.408330   576201.742483  -128315.855092   -75395.837349    45290.597609    -1809.098635    -5958.688408
     295.084857      272.765502      233.542781      476.510464      238.764272     -581.097398     2114.309641      857.620519    -7528.188572    12814.966054     1881.890250   -53233.300848   128981.443809    -5902.780742  -665286.359703   998477.562817  1782401.484149 -5647860.217819 -2337690.095403 20514164.716434 -1953270.602248 *************** 17213154.491214 *************** *************** *************** *************** *************** *************** *************** *************** *************** *************** *************** *************** *************** *************** *************** *************** *************** *************** *************** *************** *************** *************** *************** *************** *************** *************** *************** *************** *************** *************** *************** *************** *************** *************** *************** *************** *************** *************** *************** *************** *************** *************** *************** *************** *************** *************** *************** *************** *************** *************** *************** *************** *************** *************** *************** *************** *************** *************** *************** 62134229.577336 *************** *************** 61434006.547753 -6624738.906351 ***************  8500040.065423  6305862.688998 -4536896.788510  -567277.018442  1425139.425507  -304357.688129  -233086.614758   140142.790335    -1690.950498   -24337.865474     6207.084366
     285.596157      330.459339      228.905666      142.663223      910.578103     -182.784445    -1688.262155     6177.051702    -2824.371061   -17001.899791    48964.718149   -27815.240627  -161962.426904   430121.308935    35212.589726 -1866294.235347  1979218.845517  5011380.360540 *************** -9342417.980721 36395060.338135 13031172.398274 *************** *************** *************** 79235672.172727 *************** *************** *************** *************** *************** *************** *************** *************** *************** *************** *************** *************** *************** *************** *************** *************** *************** *************** *************** *************** *************** *************** *************** *************** *************** *************** *************** *************** *************** *************** *************** *************** *************** *************** *************** *************** *************** 19847251.496642 *************** *************** *************** *************** *************** *************** *************** 14299545.907828 *************** *************** *************** *************** *************** *************** *************** *************** *************** 71757196.339667 *************** *************** 89106745.538036 -9348474.460928 *************** 13727344.616994 11920492.842745 -8445948.731549 -1524292.473010  3137422.675775  -580081.532994  -646580.457663   365022.586004    18060.839442   -82580.323566    24514.074588     5732.828482