<?xml version="1.0"?>
<VTKFile type="StructuredGrid">
<StructuredGrid WholeExtent="     0    19     0    19     0     0">
<Piece Extent="     0    19     0    19     0     0">
<Points>
<DataArray type="Float32" NumberOfComponents="3"/>
      -0.002500       -0.002500        0.000000       -0.002237       -0.002500        0.000000       -0.001974       -0.002500        0.000000       -0.001711       -0.002500        0.000000       -0.001447       -0.002500        0.000000       -0.001184       -0.002500        0.000000       -0.000921       -0.002500        0.000000       -0.000658       -0.002500        0.000000       -0.000395       -0.002500        0.000000       -0.000132       -0.002500        0.000000        0.000132       -0.002500        0.000000        0.000395       -0.002500        0.000000        0.000658       -0.002500        0.000000        0.000921       -0.002500        0.000000        0.001184       -0.002500        0.000000        0.001447       -0.002500        0.000000        0.001711       -0.002500        0.000000        0.001974       -0.002500        0.000000        0.002237       -0.002500        0.000000        0.002500       -0.002500        0.000000
      -0.002500       -0.002237        0.000000       -0.002237       -0.002237        0.000000       -0.001974       -0.002237        0.000000       -0.001711       -0.002237        0.000000       -0.001447       -0.002237        0.000000       -0.001184       -0.002237        0.000000       -0.000921       -0.002237        0.000000       -0.000658       -0.002237        0.000000       -0.000395       -0.002237        0.000000       -0.000132       -0.002237        0.000000        0.000132       -0.002237        0.000000        0.000395       -0.002237        0.000000        0.000658       -0.002237        0.000000        0.000921       -0.002237        0.000000        0.001184       -0.002237        0.000000        0.001447       -0.002237        0.000000        0.001711       -0.002237        0.000000        0.001974       -0.002237        0.000000        0.002237       -0.002237        0.000000        0.002500       -0.002237        0.000000
      -0.002500       -0.001974        0.000000       -0.002237       -0.001974        0.000000       -0.001974       -0.001974        0.000000       -0.001711       -0.001974        0.000000       -0.001447       -0.001974        0.000000       -0.001184       -0.001974        0.000000       -0.000921       -0.001974        0.000000       -0.000658       -0.001974        0.000000       -0.000395       -0.001974        0.000000       -0.000132       -0.001974        0.000000        0.000132       -0.001974        0.000000        0.000395       -0.001974        0.000000        0.000658       -0.001974        0.000000        0.000921       -0.001974        0.000000        0.001184       -0.001974        0.000000        0.001447       -0.001974        0.000000        0.001711       -0.001974        0.000000        0.001974       -0.001974        0.000000        0.002237       -0.001974        0.000000        0.002500       -0.001974        0.000000
      -0.002500       -0.001711        0.000000       -0.002237       -0.001711        0.000000       -0.001974       -0.001711        0.000000       -0.001711       -0.001711        0.000000       -0.001447       -0.001711        0.000000       -0.001184       -0.001711        0.000000       -0.000921       -0.001711        0.000000       -0.000658       -0.001711        0.000000       -0.000395       -0.001711        0.000000       -0.000132       -0.001711        0.000000        0.000132       -0.001711        0.000000        0.000395       -0.001711        0.000000        0.000658       -0.001711        0.000000        0.000921       -0.001711        0.000000        0.001184       -0.001711        0.000000        0.001447       -0.001711        0.000000        0.001711       -0.001711        0.000000        0.001974       -0.001711        0.000000        0.002237       -0.001711        0.000000        0.002500       -0.001711        0.000000
      -0.002500       -0.001447        0.000000       -0.002237       -0.001447        0.000000       -0.001974       -0.001447        0.000000       -0.001711       -0.001447        0.000000       -0.001447       -0.001447        0.000000       -0.001184       -0.001447        0.000000       -0.000921       -0.001447        0.000000       -0.000658       -0.001447        0.000000       -0.000395       -0.001447        0.000000       -0.000132       -0.001447        0.000000        0.000132       -0.001447        0.000000        0.000395       -0.001447        0.000000        0.000658       -0.001447        0.000000        0.000921       -0.001447        0.000000        0.001184       -0.001447        0.000000        0.001447       -0.001447        0.000000        0.001711       -0.001447        0.000000        0.001974       -0.001447        0.000000        0.002237       -0.001447        0.000000        0.002500       -0.001447        0.000000
      -0.002500       -0.001184        0.000000       -0.002237       -0.001184        0.000000       -0.001974       -0.001184        0.000000       -0.001711       -0.001184        0.000000       -0.001447       -0.001184        0.000000       -0.001184       -0.001184        0.000000       -0.000921       -0.001184        0.000000       -0.000658       -0.001184        0.000000       -0.000395       -0.001184        0.000000       -0.000132       -0.001184        0.000000        0.000132       -0.001184        0.000000        0.000395       -0.001184        0.000000        0.000658       -0.001184        0.000000        0.000921       -0.001184        0.000000        0.001184       -0.001184        0.000000        0.001447       -0.001184        0.000000        0.001711       -0.001184        0.000000        0.001974       -0.001184        0.000000        0.002237       -0.001184        0.000000        0.002500       -0.001184        0.000000
      -0.002500       -0.000921        0.000000       -0.002237       -0.000921        0.000000       -0.001974       -0.000921        0.000000       -0.001711       -0.000921        0.000000       -0.001447       -0.000921        0.000000       -0.001184       -0.000921        0.000000       -0.000921       -0.000921        0.000000       -0.000658       -0.000921        0.000000       -0.000395       -0.000921        0.000000       -0.000132       -0.000921        0.000000        0.000132       -0.000921        0.000000        0.000395       -0.000921        0.000000        0.000658       -0.000921        0.000000        0.000921       -0.000921        0.000000        0.001184       -0.000921        0.000000        0.001447       -0.000921        0.000000        0.001711       -0.000921        0.000000        0.001974       -0.000921        0.000000        0.002237       -0.000921        0.000000        0.002500       -0.000921        0.000000
      -0.002500       -0.000658        0.000000       -0.002237       -0.000658        0.000000       -0.001974       -0.000658        0.000000       -0.001711       -0.000658        0.000000       -0.001447       -0.000658        0.000000       -0.001184       -0.000658        0.000000       -0.000921       -0.000658        0.000000       -0.000658       -0.000658        0.000000       -0.000395       -0.000658        0.000000       -0.000132       -0.000658        0.000000        0.000132       -0.000658        0.000000        0.000395       -0.000658        0.000000        0.000658       -0.000658        0.000000        0.000921       -0.000658        0.000000        0.001184       -0.000658        0.000000        0.001447       -0.000658        0.000000        0.001711       -0.000658        0.000000        0.001974       -0.000658        0.000000        0.002237       -0.000658        0.000000        0.002500       -0.000658        0.000000
      -0.002500       -0.000395        0.000000       -0.002237       -0.000395        0.000000       -0.001974       -0.000395        0.000000       -0.001711       -0.000395        0.000000       -0.001447       -0.000395        0.000000       -0.001184       -0.000395        0.000000       -0.000921       -0.000395        0.000000       -0.000658       -0.000395        0.000000       -0.000395       -0.000395        0.000000       -0.000132       -0.000395        0.000000        0.000132       -0.000395        0.000000        0.000395       -0.000395        0.000000        0.000658       -0.000395        0.000000        0.000921       -0.000395        0.000000        0.001184       -0.000395        0.000000        0.001447       -0.000395        0.000000        0.001711       -0.000395        0.000000        0.001974       -0.000395        0.000000        0.002237       -0.000395        0.000000        0.002500       -0.000395        0.000000
      -0.002500       -0.000132        0.000000       -0.002237       -0.000132        0.000000       -0.001974       -0.000132        0.000000       -0.001711       -0.000132        0.000000       -0.001447       -0.000132        0.000000       -0.001184       -0.000132        0.000000       -0.000921       -0.000132        0.000000       -0.000658       -0.000132        0.000000       -0.000395       -0.000132        0.000000       -0.000132       -0.000132        0.000000        0.000132       -0.000132        0.000000        0.000395       -0.000132        0.000000        0.000658       -0.000132        0.000000        0.000921       -0.000132        0.000000        0.001184       -0.000132        0.000000        0.001447       -0.000132        0.000000        0.001711       -0.000132        0.000000        0.001974       -0.000132        0.000000        0.002237       -0.000132        0.000000        0.002500       -0.000132        0.000000
      -0.002500        0.000132        0.000000       -0.002237        0.000132        0.000000       -0.001974        0.000132        0.000000       -0.001711        0.000132        0.000000       -0.001447        0.000132        0.000000       -0.001184        0.000132        0.000000       -0.000921        0.000132        0.000000       -0.000658        0.000132        0.000000       -0.000395        0.000132        0.000000       -0.000132        0.000132        0.000000        0.000132        0.000132        0.000000        0.000395        0.000132        0.000000        0.000658        0.000132        0.000000        0.000921        0.000132        0.000000        0.001184        0.000132        0.000000        0.001447        0.000132        0.000000        0.001711        0.000132        0.000000        0.001974        0.000132        0.000000        0.002237        0.000132        0.000000        0.002500        0.000132        0.000000
      -0.002500        0.000395        0.000000       -0.002237        0.000395        0.000000       -0.001974        0.000395        0.000000       -0.001711        0.000395        0.000000       -0.001447        0.000395        0.000000       -0.001184        0.000395        0.000000       -0.000921        0.000395        0.000000       -0.000658        0.000395        0.000000       -0.000395        0.000395        0.000000       -0.000132        0.000395        0.000000        0.000132        0.000395        0.000000        0.000395        0.000395        0.000000        0.000658        0.000395        0.000000        0.000921        0.000395        0.000000        0.001184        0.000395        0.000000        0.001447        0.000395        0.000000        0.001711        0.000395        0.000000        0.001974        0.000395        0.000000        0.002237        0.000395        0.000000        0.002500        0.000395        0.000000
      -0.002500        0.000658        0.000000       -0.002237        0.000658        0.000000       -0.001974        0.000658        0.000000       -0.001711        0.000658        0.000000       -0.001447        0.000658        0.000000       -0.001184        0.000658        0.000000       -0.000921        0.000658        0.000000       -0.000658        0.000658        0.000000       -0.000395        0.000658        0.000000       -0.000132        0.000658        0.000000        0.000132        0.000658        0.000000        0.000395        0.000658        0.000000        0.000658        0.000658        0.000000        0.000921        0.000658        0.000000        0.001184        0.000658        0.000000        0.001447        0.000658        0.000000        0.001711        0.000658        0.000000        0.001974        0.000658        0.000000        0.002237        0.000658        0.000000        0.002500        0.000658        0.000000
      -0.002500        0.000921        0.000000       -0.002237        0.000921        0.000000       -0.001974        0.000921        0.000000       -0.001711        0.000921        0.000000       -0.001447        0.000921        0.000000       -0.001184        0.000921        0.000000       -0.000921        0.000921        0.000000       -0.000658        0.000921        0.000000       -0.000395        0.000921        0.000000       -0.000132        0.000921        0.000000        0.000132        0.000921        0.000000        0.000395        0.000921        0.000000        0.000658        0.000921        0.000000        0.000921        0.000921        0.000000        0.001184        0.000921        0.000000        0.001447        0.000921        0.000000        0.001711        0.000921        0.000000        0.001974        0.000921        0.000000        0.002237        0.000921        0.000000        0.002500        0.000921        0.000000
      -0.002500        0.001184        0.000000       -0.002237        0.001184        0.000000       -0.001974        0.001184        0.000000       -0.001711        0.001184        0.000000       -0.001447        0.001184        0.000000       -0.001184        0.001184        0.000000       -0.000921        0.001184        0.000000       -0.000658        0.001184        0.000000       -0.000395        0.001184        0.000000       -0.000132        0.001184        0.000000        0.000132        0.001184        0.000000        0.000395        0.001184        0.000000        0.000658        0.001184        0.000000        0.000921        0.001184        0.000000        0.001184        0.001184        0.000000        0.001447        0.001184        0.000000        0.001711        0.001184        0.000000        0.001974        0.001184        0.000000        0.002237        0.001184        0.000000        0.002500        0.001184        0.000000
      -0.002500        0.001447        0.000000       -0.002237        0.001447        0.000000       -0.001974        0.001447        0.000000       -0.001711        0.001447        0.000000       -0.001447        0.001447        0.000000       -0.001184        0.001447        0.000000       -0.000921        0.001447        0.000000       -0.000658        0.001447        0.000000       -0.000395        0.001447        0.000000       -0.000132        0.001447        0.000000        0.000132        0.001447        0.000000        0.000395        0.001447        0.000000        0.000658        0.001447        0.000000        0.000921        0.001447        0.000000        0.001184        0.001447        0.000000        0.001447        0.001447        0.000000        0.001711        0.001447        0.000000        0.001974        0.001447        0.000000        0.002237        0.001447        0.000000        0.002500        0.001447        0.000000
      -0.002500        0.001711        0.000000       -0.002237        0.001711        0.000000       -0.001974        0.001711        0.000000       -0.001711        0.001711        0.000000       -0.001447        0.001711        0.000000       -0.001184        0.001711        0.000000       -0.000921        0.001711        0.000000       -0.000658        0.001711        0.000000       -0.000395        0.001711        0.000000       -0.000132        0.001711        0.000000        0.000132        0.001711        0.000000        0.000395        0.001711        0.000000        0.000658        0.001711        0.000000        0.000921        0.001711        0.000000        0.001184        0.001711        0.000000        0.001447        0.001711        0.000000        0.001711        0.001711        0.000000        0.001974        0.001711        0.000000        0.002237        0.001711        0.000000        0.002500        0.001711        0.000000
      -0.002500        0.001974        0.000000       -0.002237        0.001974        0.000000       -0.001974        0.001974        0.000000       -0.001711        0.001974        0.000000       -0.001447        0.001974        0.000000       -0.001184        0.001974        0.000000       -0.000921        0.001974        0.000000       -0.000658        0.001974        0.000000       -0.000395        0.001974        0.000000       -0.000132        0.001974        0.000000        0.000132        0.001974        0.000000        0.000395        0.001974        0.000000        0.000658        0.001974        0.000000        0.000921        0.001974        0.000000        0.001184        0.001974        0.000000        0.001447        0.001974        0.000000        0.001711        0.001974        0.000000        0.001974        0.001974        0.000000        0.002237        0.001974        0.000000        0.002500        0.001974        0.000000
      -0.002500        0.002237        0.000000       -0.002237        0.002237        0.000000       -0.001974        0.002237        0.000000       -0.001711        0.002237        0.000000       -0.001447        0.002237        0.000000       -0.001184        0.002237        0.000000       -0.000921        0.002237        0.000000       -0.000658        0.002237        0.000000       -0.000395        0.002237        0.000000       -0.000132        0.002237        0.000000        0.000132        0.002237        0.000000        0.000395        0.002237        0.000000        0.000658        0.002237        0.000000        0.000921        0.002237        0.000000        0.001184        0.002237        0.000000        0.001447        0.002237        0.000000        0.001711        0.002237        0.000000        0.001974        0.002237        0.000000        0.002237        0.002237        0.000000        0.002500        0.002237        0.000000
      -0.002500        0.002500        0.000000       -0.002237        0.002500        0.000000       -0.001974        0.002500        0.000000       -0.001711        0.002500        0.000000       -0.001447        0.002500        0.000000       -0.001184        0.002500        0.000000       -0.000921        0.002500        0.000000       -0.000658        0.002500        0.000000       -0.000395        0.002500        0.000000       -0.000132        0.002500        0.000000        0.000132        0.002500        0.000000        0.000395        0.002500        0.000000        0.000658        0.002500        0.000000        0.000921        0.002500        0.000000        0.001184        0.002500        0.000000        0.001447        0.002500        0.000000        0.001711        0.002500        0.000000        0.001974        0.002500        0.000000        0.002237        0.002500        0.000000        0.002500        0.002500        0.000000
</Points>
<CellData Scalars="Température, U, V">
<DataArray type="Float32" Name="Temp, K"/>
   -3151.293478      293.000000      293.000000      293.000000      293.000000      293.000000      704.118490    -2584.829428    11891.803726   -31888.039793    68328.261870  -113478.712609   155056.127255  -172540.783044   159760.926324  -120501.176001    74723.615570   -35983.340732    13765.321851
   -3151.293478      293.000000      293.000000      293.000000      293.000000      293.000000      704.118490    -2584.829428    11891.803726   -31888.039793    68328.261870  -113478.712609   155056.127255  -172540.783044   159760.926324  -120501.176001    74723.615570   -35983.340732    13765.321851
   -3151.293478      293.000000      293.000000      293.000000      293.000000      293.000000      704.118490    -2584.829428    11891.803726   -31888.039793    68328.261870  -113478.712609   155056.127255  -172540.783044   159760.926324  -120501.176001    74723.615570   -35983.340732    13765.321851
   -3151.293478      293.000000      293.000000      293.000000      293.000000      293.000000      704.118490    -2584.829428    11891.803726   -31888.039793    68328.261870  -113478.712609   155056.127255  -172540.783044   159760.926324  -120501.176001    74723.615570   -35983.340732    13765.321851
   -3151.293478      293.000000      293.000000      293.000000      293.000000      293.000000      704.118490    -2584.829428    11891.803726   -31888.039793    68328.261870  -113478.712609   155056.127255  -172540.783044   159760.926324  -120501.176001    74723.615570   -35983.340732    13765.321851
   -3151.293478      293.000000      293.000000      293.000000      293.000000      293.000000      704.118490    -2584.829428    11891.803726   -31888.039793    68328.261870  -113478.712609   155056.127255  -172540.783044   159760.926324  -120501.176001    74723.615570   -35983.340732    13765.321851
   -3151.293478      293.000000      293.000000      293.000000      293.000000      293.000000      704.118490    -2584.829428    11891.803726   -31888.039793    68328.261870  -113478.712609   155056.127255  -172540.783044   159760.926324  -120501.176001    74723.615570   -35983.340732    13765.321851
   -3151.293478      293.000000      293.000000      293.000000      293.000000      293.000000      704.118490    -2584.829428    11891.803726   -31888.039793    68328.261870  -113478.712609   155056.127255  -172540.783044   159760.926324  -120501.176001    74723.615570   -35983.340732    13765.321851
   -3151.293478      293.000000      293.000000      293.000000      293.000000      293.000000      704.118490    -2584.829428    11891.803726   -31888.039793    68328.261870  -113478.712609   155056.127255  -172540.783044   159760.926324  -120501.176001    74723.615570   -35983.340732    13765.321851
   -3151.293478      293.000000      293.000000      293.000000      293.000000      293.000000      704.118490    -2584.829428    11891.803726   -31888.039793    68328.261870  -113478.712609   155056.127255  -172540.783044   159760.926324  -120501.176001    74723.615570   -35983.340732    13765.321851
   -3151.293478      293.000000      293.000000      293.000000      293.000000      293.000000      704.118490    -2584.829428    11891.803726   -31888.039793    68328.261870  -113478.712609   155056.127255  -172540.783044   159760.926324  -120501.176001    74723.615570   -35983.340732    13765.321851
   -3151.293478      293.000000      293.000000      293.000000      293.000000      293.000000      704.118490    -2584.829428    11891.803726   -31888.039793    68328.261870  -113478.712609   155056.127255  -172540.783044   159760.926324  -120501.176001    74723.615570   -35983.340732    13765.321851
   -3151.293478      293.000000      293.000000      293.000000      293.000000      293.000000      704.118490    -2584.829428    11891.803726   -31888.039793    68328.261870  -113478.712609   155056.127255  -172540.783044   159760.926324  -120501.176001    74723.615570   -35983.340732    13765.321851
   -3151.293478      293.000000      293.000000      293.000000      293.000000      293.000000      704.118490    -2584.829428    11891.803726   -31888.039793    68328.261870  -113478.712609   155056.127255  -172540.783044   159760.926324  -120501.176001    74723.615570   -35983.340732    13765.321851
   -3151.293478      293.000000      293.000000      293.000000      293.000000      293.000000      704.118490    -2584.829428    11891.803726   -31888.039793    68328.261870  -113478.712609   155056.127255  -172540.783044   159760.926324  -120501.176001    74723.615570   -35983.340732    13765.321851
   -3151.293478      293.000000      293.000000      293.000000      293.000000      293.000000      704.118490    -2584.829428    11891.803726   -31888.039793    68328.261870  -113478.712609   155056.127255  -172540.783044   159760.926324  -120501.176001    74723.615570   -35983.340732    13765.321851
   -3151.293478      293.000000      293.000000      293.000000      293.000000      293.000000      704.118490    -2584.829428    11891.803726   -31888.039793    68328.261870  -113478.712609   155056.127255  -172540.783044   159760.926324  -120501.176001    74723.615570   -35983.340732    13765.321851
   -3151.293478      293.000000      293.000000      293.000000      293.000000      293.000000      704.118490    -2584.829428    11891.803726   -31888.039793    68328.261870  -113478.712609   155056.127255  -172540.783044   159760.926324  -120501.176001    74723.615570   -35983.340732    13765.321851
   -3151.293478      293.000000      293.000000      293.000000      293.000000       55.410814     2367.242794    -8876.767135    28022.814009   -62074.155542   111029.042270  -157931.443673   186152.974938  -178721.046457   142712.946890   -90903.445936    47505.745958   -17520.808061     5727.782609
<DataArray type="Float32" Name="Vitesse u, m/s"/>
     -10.000000      -10.000000      -10.000000      -10.000000      -10.000000      -10.000000      -10.000000      -10.000000      -10.000000      -10.000000      -10.000000      -10.000000      -10.000000      -10.000000      -10.000000      -10.000000      -10.000000      -10.000000      -10.000000
     -10.000000      -10.000000      -10.000000      -10.000000      -10.000000      -10.000000      -10.000000      -10.000000      -10.000000      -10.000000      -10.000000      -10.000000      -10.000000      -10.000000      -10.000000      -10.000000      -10.000000      -10.000000      -10.000000
     -10.000000      -10.000000      -10.000000      -10.000000      -10.000000      -10.000000      -10.000000      -10.000000      -10.000000      -10.000000      -10.000000      -10.000000      -10.000000      -10.000000      -10.000000      -10.000000      -10.000000      -10.000000      -10.000000
     -10.000000      -10.000000      -10.000000      -10.000000      -10.000000      -10.000000      -10.000000      -10.000000      -10.000000      -10.000000      -10.000000      -10.000000      -10.000000      -10.000000      -10.000000      -10.000000      -10.000000      -10.000000      -10.000000
     -10.000000      -10.000000      -10.000000      -10.000000      -10.000000      -10.000000      -10.000000      -10.000000      -10.000000      -10.000000      -10.000000      -10.000000      -10.000000      -10.000000      -10.000000      -10.000000      -10.000000      -10.000000      -10.000000
     -10.000000      -10.000000      -10.000000      -10.000000      -10.000000      -10.000000      -10.000000      -10.000000      -10.000000      -10.000000      -10.000000      -10.000000      -10.000000      -10.000000      -10.000000      -10.000000      -10.000000      -10.000000      -10.000000
     -10.000000      -10.000000      -10.000000      -10.000000      -10.000000      -10.000000      -10.000000      -10.000000      -10.000000      -10.000000      -10.000000      -10.000000      -10.000000      -10.000000      -10.000000      -10.000000      -10.000000      -10.000000      -10.000000
     -10.000000      -10.000000      -10.000000      -10.000000      -10.000000      -10.000000      -10.000000      -10.000000      -10.000000      -10.000000      -10.000000      -10.000000      -10.000000      -10.000000      -10.000000      -10.000000      -10.000000      -10.000000      -10.000000
     -10.000000      -10.000000      -10.000000      -10.000000      -10.000000      -10.000000      -10.000000      -10.000000      -10.000000      -10.000000      -10.000000      -10.000000      -10.000000      -10.000000      -10.000000      -10.000000      -10.000000      -10.000000      -10.000000
     -10.000000      -10.000000      -10.000000      -10.000000      -10.000000      -10.000000      -10.000000      -10.000000      -10.000000      -10.000000      -10.000000      -10.000000      -10.000000      -10.000000      -10.000000      -10.000000      -10.000000      -10.000000      -10.000000
     -10.000000      -10.000000      -10.000000      -10.000000      -10.000000      -10.000000      -10.000000      -10.000000      -10.000000      -10.000000      -10.000000      -10.000000      -10.000000      -10.000000      -10.000000      -10.000000      -10.000000      -10.000000      -10.000000
     -10.000000      -10.000000      -10.000000      -10.000000      -10.000000      -10.000000      -10.000000      -10.000000      -10.000000      -10.000000      -10.000000      -10.000000      -10.000000      -10.000000      -10.000000      -10.000000      -10.000000      -10.000000      -10.000000
     -10.000000      -10.000000      -10.000000      -10.000000      -10.000000      -10.000000      -10.000000      -10.000000      -10.000000      -10.000000      -10.000000      -10.000000      -10.000000      -10.000000      -10.000000      -10.000000      -10.000000      -10.000000      -10.000000
     -10.000000      -10.000000      -10.000000      -10.000000      -10.000000      -10.000000      -10.000000      -10.000000      -10.000000      -10.000000      -10.000000      -10.000000      -10.000000      -10.000000      -10.000000      -10.000000      -10.000000      -10.000000      -10.000000
     -10.000000      -10.000000      -10.000000      -10.000000      -10.000000      -10.000000      -10.000000      -10.000000      -10.000000      -10.000000      -10.000000      -10.000000      -10.000000      -10.000000      -10.000000      -10.000000      -10.000000      -10.000000      -10.000000