<?xml version="1.0"?>
<VTKFile type="StructuredGrid">
<StructuredGrid WholeExtent="     0    99     0    99     0     0">
<Piece Extent="     0    99     0    99     0     0">
<Points>
<DataArray type="Float32" NumberOfComponents="3"/>
      -0.002500       -0.002500        0.000000       -0.002449       -0.002500        0.000000       -0.002399       -0.002500        0.000000       -0.002348       -0.002500        0.000000       -0.002298       -0.002500        0.000000       -0.002247       -0.002500        0.000000       -0.002197       -0.002500        0.000000       -0.002146       -0.002500        0.000000       -0.002096       -0.002500        0.000000       -0.002045       -0.002500        0.000000       -0.001995       -0.002500        0.000000       -0.001944       -0.002500        0.000000       -0.001894       -0.002500        0.000000       -0.001843       -0.002500        0.000000       -0.001793       -0.002500        0.000000       -0.001742       -0.002500        0.000000       -0.001692       -0.002500        0.000000       -0.001641       -0.002500        0.000000       -0.001591       -0.002500        0.000000       -0.001540       -0.002500        0.000000       -0.001490       -0.002500        0.000000       -0.001439       -0.002500        0.000000       -0.001389       -0.002500        0.000000       -0.001338       -0.002500        0.000000       -0.001288       -0.002500        0.000000       -0.001237       -0.002500        0.000000       -0.001187       -0.002500        0.000000       -0.001136       -0.002500        0.000000       -0.001086       -0.002500        0.000000       -0.001035       -0.002500        0.000000       -0.000985       -0.002500        0.000000       -0.000934       -0.002500        0.000000       -0.000884       -0.002500        0.000000       -0.000833       -0.002500        0.000000       -0.000783       -0.002500        0.000000       -0.000732       -0.002500        0.000000       -0.000682       -0.002500        0.000000       -0.000631       -0.002500        0.000000       -0.000581       -0.002500        0.000000       -0.000530       -0.002500        0.000000       -0.000480       -0.002500        0.000000       -0.000429       -0.002500        0.000000       -0.000379       -0.002500        0.000000       -0.000328       -0.002500        0.000000       -0.000278       -0.002500        0.000000       -0.000227       -0.002500        0.000000       -0.000177       -0.002500        0.000000       -0.000126       -0.002500        0.000000       -0.000076       -0.002500        0.000000       -0.000025       -0.002500        0.000000        0.000025       -0.002500        0.000000        0.000076       -0.002500        0.000000        0.000126       -0.002500        0.000000        0.000177       -0.002500        0.000000        0.000227       -0.002500        0.000000        0.000278       -0.002500        0.000000        0.000328       -0.002500        0.000000        0.000379       -0.002500        0.000000        0.000429       -0.002500        0.000000        0.000480       -0.002500        0.000000        0.000530       -0.002500        0.000000        0.000581       -0.002500        0.000000        0.000631       -0.002500        0.000000        0.000682       -0.002500        0.000000        0.000732       -0.002500        0.000000        0.000783       -0.002500        0.000000        0.000833       -0.002500        0.000000        0.000884       -0.002500        0.000000        0.000934       -0.002500        0.000000        0.000985       -0.002500        0.000000        0.001035       -0.002500        0.000000        0.001086       -0.002500        0.000000        0.001136       -0.002500        0.000000        0.001187       -0.002500        0.000000        0.001237       -0.002500        0.000000        0.001288       -0.002500        0.000000        0.001338       -0.002500        0.000000        0.001389       -0.002500        0.000000        0.001439       -0.002500        0.000000        0.001490       -0.002500        0.000000        0.001540       -0.002500        0.000000        0.001591       -0.002500        0.000000        0.001641       -0.002500        0.000000        0.001692       -0.002500        0.000000        0.001742       -0.002500        0.000000        0.001793       -0.002500        0.000000        0.001843       -0.002500        0.000000        0.001894       -0.002500        0.000000        0.001944       -0.002500        0.000000        0.001995       -0.002500        0.000000        0.002045       -0.002500        0.000000        0.002096       -0.002500        0.000000        0.002146       -0.002500        0.000000        0.002197       -0.002500        0.000000        0.002247       -0.002500        0.000000        0.002298       -0.002500        0.000000        0.002348       -0.002500        0.000000        0.002399       -0.002500        0.000000        0.002449       -0.002500        0.000000        0.002500       -0.002500        0.000000
      -0.002500       -0.002449        0.000000       -0.002449       -0.002449        0.000000       -0.002399       -0.002449        0.000000       -0.002348       -0.002449        0.000000       -0.002298       -0.002449        0.000000       -0.002247       -0.002449        0.000000       -0.002197       -0.002449        0.000000       -0.002146       -0.002449        0.000000       -0.002096       -0.002449        0.000000       -0.002045       -0.002449        0.000000       -0.001995       -0.002449        0.000000       -0.001944       -0.002449        0.000000       -0.001894       -0.002449        0.000000       -0.001843       -0.002449        0.000000       -0.001793       -0.002449        0.000000       -0.001742       -0.002449        0.000000       -0.001692       -0.002449        0.000000       -0.001641       -0.002449        0.000000       -0.001591       -0.002449        0.000000       -0.001540       -0.002449        0.000000       -0.001490       -0.002449        0.000000       -0.001439       -0.002449        0.000000       -0.001389       -0.002449        0.000000       -0.001338       -0.002449        0.000000       -0.001288       -0.002449        0.000000       -0.001237       -0.002449        0.000000       -0.001187       -0.002449        0.000000       -0.001136       -0.002449        0.000000       -0.001086       -0.002449        0.000000       -0.001035       -0.002449        0.000000       -0.000985       -0.002449        0.000000       -0.000934       -0.002449        0.000000       -0.000884       -0.002449        0.000000       -0.000833       -0.002449        0.000000       -0.000783       -0.002449        0.000000       -0.000732       -0.002449        0.000000       -0.000682       -0.002449        0.000000       -0.000631       -0.002449        0.000000       -0.000581       -0.002449        0.000000       -0.000530       -0.002449        0.000000       -0.000480       -0.002449        0.000000       -0.000429       -0.002449        0.000000       -0.000379       -0.002449        0.000000       -0.000328       -0.002449        0.000000       -0.000278       -0.002449        0.000000       -0.000227       -0.002449        0.000000       -0.000177       -0.002449        0.000000       -0.000126       -0.002449        0.000000       -0.000076       -0.002449        0.000000       -0.000025       -0.002449        0.000000        0.000025       -0.002449        0.000000        0.000076       -0.002449        0.000000        0.000126       -0.002449        0.000000        0.000177       -0.002449        0.000000        0.000227       -0.002449        0.000000        0.000278       -0.002449        0.000000        0.000328       -0.002449        0.000000        0.000379       -0.002449        0.000000        0.000429       -0.002449        0.000000        0.000480       -0.002449        0.000000        0.000530       -0.002449        0.000000        0.000581       -0.002449        0.000000        0.000631       -0.002449        0.000000        0.000682       -0.002449        0.000000        0.000732       -0.002449        0.000000        0.000783       -0.002449        0.000000        0.000833       -0.002449        0.000000        0.000884       -0.002449        0.000000        0.000934       -0.002449        0.000000        0.000985       -0.002449        0.000000        0.001035       -0.002449        0.000000        0.001086       -0.002449        0.000000        0.001136       -0.002449        0.000000        0.001187       -0.002449        0.000000        0.001237       -0.002449        0.000000        0.001288       -0.002449        0.000000        0.001338       -0.002449        0.000000        0.001389       -0.002449        0.000000        0.001439       -0.002449        0.000000        0.001490       -0.002449        0.000000        0.001540       -0.002449        0.000000        0.001591       -0.002449        0.000000        0.001641       -0.002449        0.000000        0.001692       -0.002449        0.000000        0.001742       -0.002449        0.000000        0.001793       -0.002449        0.000000        0.001843       -0.002449        0.000000        0.001894       -0.002449        0.000000        0.001944       -0.002449        0.000000        0.001995       -0.002449        0.000000        0.002045       -0.002449        0.000000        0.002096       -0.002449        0.000000        0.002146       -0.002449        0.000000        0.002197       -0.002449        0.000000        0.002247       -0.002449        0.000000        0.002298       -0.002449        0.000000        0.002348       -0.002449        0.000000        0.002399       -0.002449        0.000000        0.002449       -0.002449        0.000000        0.002500       -0.002449        0.000000
[...]
<CellData Scalars="Temprature, U, V">
<DataArray type="Float32" Name="Temp, K"/>
     292.765483      294.599667      296.188545      289.065183      265.552073      250.798809      271.161076      247.201828      124.156829      147.294371      417.883427      320.840873     -277.756522      -46.440361      986.417260      136.756293    -1034.417551     3330.127091     3348.646196   -19322.627917   -25226.384506    64978.904531   167098.293750   -11641.856924  -518686.029326  -774338.663722   -98368.038283  1310464.263785  2382256.609395  2259770.448344  1154680.188109    61861.754116  -179701.595085 -1686470.857456 *************** *************** *************** *************** *************** *************** *************** *************** *************** *************** *************** *************** *************** *************** *************** *************** *************** *************** *************** *************** *************** *************** *************** *************** *************** *************** *************** *************** *************** *************** *************** -4673871.130747   351567.736118  -253344.743122  -560606.507816  -503975.794746  -160944.636308   261084.826194   319468.223072  -111198.529723  -331222.054049   256971.955710   786191.461828    64205.490760  -960595.237364  -438188.061933   822841.378675   592681.972345  -566418.692578  -521436.672943   338253.163126   346996.057529  -183000.429821  -181909.624814    91064.923104    76560.478480   -39782.965323   -25317.346148    15177.405977     7122.913958    -4330.861149    -1293.596698     1496.454280      666.847251     -335.928555
     291.445339      293.437768      299.191070      302.177034      275.007307      218.816765      220.452254      271.247356      129.861343     -107.440835      179.372562      646.239453      -58.255377     -977.605467      509.248732     1644.060343    -2174.135675    -1086.763426    12868.967568      833.011097   -62108.209914   -43172.230195   200390.900446   377910.380987  -110668.505865 -1188403.112913 -1651282.914164  -419042.338211  2021724.741976  3906773.809259  4059108.506176  2871427.637197  2005777.033686  1286387.318439 *************** *************** *************** *************** *************** *************** *************** *************** *************** *************** *************** *************** *************** *************** *************** *************** *************** *************** *************** *************** *************** *************** *************** *************** *************** *************** *************** *************** *************** *************** *************** -1545405.107381   820718.180955  -269208.849964  -388754.973750    30277.323847   594346.780792   789918.125938   253210.924846  -391259.259288   -28362.168868   936101.003548   585124.366061 -1055054.642104 -1205330.116525   722689.879324  1400612.561997  -335069.587733 -1202520.048538   104191.116923   830326.284566   -27851.388157  -475539.176707    20571.818659   227504.254209   -20662.677645   -89811.773461    14551.158087    29387.805783    -6535.453812    -7603.619495     2626.291959     2282.416084     -432.615211     -747.702763
     291.008881      291.669349      292.790817      303.427309      320.004064      282.814106      183.387236      214.814151      373.939623      141.040095     -344.922722      156.696899     1123.913980      -81.626344    -1850.511606     1236.592374     3354.886861    -7248.966243    -7050.938590    35802.852303    36952.954356  -123466.073127  -231392.930277   172062.101870   891284.394664   766028.427737  -917226.790134 -3016656.744853 -3455837.158875 -1575546.236137  1254738.939734  3082021.510276  3179693.028111  1438754.173979  -133614.959047 18831974.993226 *************** *************** *************** *************** *************** *************** *************** *************** *************** *************** *************** *************** *************** *************** *************** *************** *************** *************** *************** *************** *************** *************** *************** *************** *************** *************** *************** 48632379.886891   930584.167153 -1184221.189508    89622.038934   719464.644194  1111317.451442  1342269.711250  1040309.755982   166024.237620  -511434.114860   -76645.689824   792406.370037   271070.098835 -1286373.374097 -1040724.491642  1165637.179824  1545899.875909  -743363.179747 -1548326.106812   376281.069232  1205566.310862  -181042.762205  -766587.007844   105759.290319   403819.458528   -70973.836415  -174673.353659    43092.509259    61479.216086   -20044.504388   -16974.345931     7509.194571     4462.006657    -1593.258938    -1108.647629     -275.522690
     290.320040      292.219142      292.740248      289.020902      306.176664      352.768914      298.957155      109.883738      192.194615      564.631656      190.077519     -762.292812       74.173251     1997.331111     -210.615778    -3870.613896     3355.057146     9658.913490   -18355.070175   -34001.739904    68586.223924   155744.814070  -128438.965646  -601532.441101  -286917.894579  1185027.257612  2314507.456695  1143258.202818 -2154831.657105 -5118907.099668 -5618419.574643 -3784462.598154 -1663064.665403 -2815232.344862 -9195110.302442 20593968.448682 *************** *************** *************** *************** *************** *************** *************** *************** *************** *************** *************** *************** *************** *************** *************** *************** *************** *************** *************** *************** *************** *************** *************** *************** *************** *************** *************** 89186995.015327 -8016953.714622 -4555330.186399   112202.978592  1040113.871806   860980.337549   201752.913552  -679131.881169 -1033737.843497  -288405.954006   628723.148949    74718.352085 -1293409.847150  -721364.168399  1540558.215464  1505892.339024 -1227885.337339 -1809241.167030   772551.123523  1604636.067978  -440810.692101 -1137609.834772   263866.454448   661573.763579  -168376.151674  -314473.115294   101151.786135   120317.836269   -49855.018586   -35595.986191    19480.913447     8750.120423    -4995.066821    -1752.267146      374.878374     -287.089634
     289.396688      290.292665      295.359997      296.071217      278.045215      303.519332      413.228566      332.430569      -29.976798      132.207618      899.023781      324.796474    -1503.201526     -139.626299     3818.902645     -496.741438    -9411.389934     7128.695719    30027.254016   -31480.474549  -111980.876576    68708.974880   401788.518876   113130.945631  -987554.031068 -1412657.486915   377516.160186  3353926.180172  4479165.151939  2214447.564664 -1796279.238296 -4667056.863002 -5127500.780346 -3411373.844498   659058.038335  5626458.771886 *************** *************** *************** *************** *************** *************** *************** *************** *************** *************** *************** *************** *************** *************** *************** *************** *************** *************** *************** *************** *************** *************** *************** *************** *************** *************** ***************  2349845.498902  4304064.319833   769178.426553  -356226.315268  -817115.264231 -1352140.763802 -1750850.079126 -1403777.160265  -189712.567646   771610.274673   140215.773294 -1107049.558295  -381154.497679  1729534.841851  1272556.302019 -1697600.757282 -1914392.976172  1261921.067975  1964214.506067  -814556.757138 -1562620.486351   514165.031628  1006778.404965  -331680.227183  -527721.943911   204597.857979   221413.046511  -107865.993927   -71084.517227    45571.643492    17252.984124   -13584.432031    -2789.597993     2288.738477     -347.702230     -664.074671
     289.339229      289.217040      289.488131      302.353340      304.816297      251.957919      288.263187      522.162541      399.188091     -276.802714       -9.256692     1467.859234      672.653656    -2902.851952     -794.245573     8040.317018      -80.854142   -24076.839804     8071.523688    81707.832381   -19932.696853  -270976.275585   -77066.212456   716109.561890   832137.908273  -854803.966889 -2847512.434098 -2135199.687976  1838720.393473  6012050.600633  7078693.871699  4744083.079669  1212143.934977  -310458.664712  6258901.669675 25766054.206981 *************** *************** *************** *************** *************** *************** *************** *************** *************** *************** *************** *************** *************** *************** *************** *************** *************** *************** *************** *************** *************** *************** *************** *************** *************** *************** *************** 24901660.984953 13289444.273114  1091125.117608 -1549874.961747 -1716734.051339 -1434217.226241  -559693.156921   731320.922376  1324664.010338   335183.929521  -951878.054324  -204350.820062  1677979.339223   920125.107163 -2038377.461341 -1825969.764650  1774011.636794  2213844.981577 -1282082.295468 -1993855.102972   862640.125366  1429389.036641  -574809.636823  -829020.883604   369060.610238   384100.149720  -208816.931996  -135739.531247    96601.220089    34323.818621   -32988.027366    -4671.287642     7389.372409     -855.105557    -1501.360933      -95.281292
     288.616206      290.974617      288.780769      285.524455      317.345552      324.812483      196.853202      248.925498      708.791235      530.180562     -681.922252     -347.047771     2429.586202     1627.866706    -5702.200229    -3130.466071    17673.178607     5460.426039   -57151.128101   -12129.751757   181619.686308    84860.340143  -488630.083541  -533421.558935   811078.192692  2015396.388336   503680.456277 -3266058.274709 -5361738.300537 -2992253.046365  2204338.892135  6268950.244264  7099057.363672  5402770.180225  2026371.087894 -5377734.673557 *************** 53547991.352453 *************** *************** *************** *************** *************** *************** *************** *************** *************** *************** *************** *************** *************** *************** *************** *************** *************** *************** *************** *************** *************** *************** *************** *************** -2844189.090734 *************** -2538459.006297  -148587.774511   198530.122994   610957.344398  1388300.883012  2061238.562084  1746139.252778   175928.182667 -1133233.329388  -278538.881353  1474840.536858   598767.149965 -2160165.555827 -1568207.397664  2210343.214709  2298894.987784 -1790664.869336 -2369309.510915  1293746.837880  1899448.771578  -899734.425107 -1222741.645171   604395.210779   628771.186317  -366926.025644  -247537.782756   186539.590203    68423.928835   -72511.629433    -9014.936936    19706.365886    -2306.138181    -3907.200072      773.336761      -51.337762
     287.144981      288.713730      295.698024      286.471108      273.719362      348.681862      364.763050       92.010516      167.873985     1002.643802      798.731549    -1291.301672    -1205.136335     4035.218588     4357.889793   -11188.053084   -11008.156274    37020.743184    29224.556369  -116421.548457   -96314.540804   317817.014074   389121.481636  -611004.935108 -1378556.698817   178114.233296  3043382.958346  3211220.803423 -1041263.070810 -6346798.835405 -8097329.430550 -5390065.439148  -881795.191693  2493005.168588  1115729.976864 *************** *************** 59084333.605918 *************** *************** *************** *************** *************** *************** *************** *************** *************** *************** *************** *************** *************** *************** *************** *************** *************** *************** *************** *************** *************** *************** *************** *************** *************** *************** -4829793.990749  1626946.497298  2163931.671676  2248047.314677  2067512.732949   984016.928020  -781833.642692 -1677509.190439  -412173.082209  1360677.775120   458215.319439 -2062071.745895 -1237291.322867  2475300.912723  2206179.952488 -2260972.304334 -2628643.422627  1766420.359840  2368829.882518 -1290405.200926 -1696961.808049   908255.217858   971559.285043  -590155.158807  -429468.192781   329457.738962   134315.030262  -145147.428528   -20406.589684    46615.282657    -5000.839163   -10359.450380     3095.900946      675.567037    -1037.070747
     287.586903      285.468022      289.494817      307.085928      278.115651      246.889173      410.809900      434.281865      -83.105029       13.688730     1399.451295     1398.882038    -2075.389054    -3444.511266     6504.246739    11844.190820   -20620.464153   -33735.148421    68129.964524    98478.900672  -192073.408828  -310276.582976   403361.251779   969232.590868  -321939.832934 -2363698.709825 -1570069.194856  2686381.558080  5920607.475883  3859044.169163 -2274297.293180 -7529251.813238 -8750558.539540 -6752270.421670 -3771095.312405  1025841.216662 13198953.102180 19929904.824340 *************** *************** *************** *************** *************** *************** *************** *************** *************** *************** *************** *************** *************** *************** *************** *************** *************** *************** *************** *************** *************** *************** *************** *************** 18655051.342189  6136347.696576   815395.089512   319420.031354   400403.809924   -87467.341261 -1162626.245125 -2220008.847067 -2046675.976185  -140104.182887  1580339.118428   511073.599024 -1877300.727919  -969362.698572  2523832.671205  1980401.189176 -2607280.974227 -2733979.178565  2217893.980600  2780209.464249 -1710539.929498 -2220367.586852  1261195.710954  1417155.462221  -873461.921322  -705884.546364   533659.766690   254379.031228  -265284.565901   -49210.792269    99575.107533    -7659.150762   -26082.446061     8199.291330     3068.850092    -2941.708881     -260.357757
     287.899266      289.499028      280.789771      292.341182      331.296379      254.345209      198.206633      521.903850      538.263855     -317.400424     -284.253858     1760.590484     2820.526735    -2697.097621    -9059.605325     9378.636415    30386.468478   -32734.185719   -88631.265870   101377.750894   253163.874595  -230553.804608  -708022.378461   247129.215061  1733964.846161   726759.792802 -2769790.190978 -4104551.147549   -91511.272977  6059016.022723  8501475.023490  5500363.872235   219059.140088 -3830879.943645 -5084694.948246  1760419.322406 33619795.170195 74292846.221678 *************** *************** *************** *************** *************** *************** *************** *************** *************** *************** *************** *************** *************** *************** *************** *************** *************** *************** *************** *************** *************** *************** *************** 12367494.104309 54202186.496661 13587018.220806  -690725.229527 -2200769.676639 -2214691.696780 -2616333.081404 -2605356.925455 -1364779.956352   852956.112002  2077450.889583   532350.515169 -1826856.708209  -856842.776780  2404802.433179  1715128.074572 -2770391.837351 -2687603.782505  2577477.641606  3082155.277470 -2107644.938285 -2744732.918134  1626028.400072  1951915.678336 -1193783.859445 -1095323.120906   794124.511916   457131.728220  -443161.218993  -114489.987991   192965.955170    -4604.219535   -60383.232228    17125.333942    10286.473164    -7632.024131     -365.363695      938.546538
     284.958702      290.575171      293.034794      268.151708      302.414725      375.336468      198.383958      131.974688      685.264876      666.403641     -477.837730     -894.238101     1567.798645     6140.489726    -1911.705531   -21915.967967     9776.984595    70624.008159   -38251.945759  -199326.082601   101350.282010   526551.992752  -116737.546414 -1256498.772294  -391735.029040  2303673.856079  2570980.695831 -1684724.819845 -6001252.894448 -4672436.035971  1898352.129939  8085175.455075  9684444.499595  7310176.066101  4073804.271074  1181240.310273 -5790574.106887 *************** -7638257.671065 *************** *************** *************** *************** *************** *************** *************** *************** *************** *************** *************** *************** *************** *************** *************** *************** *************** *************** *************** *************** *************** 86667354.733746 *************** *************** -2196578.594821  -493815.258899 -1018008.174179 -1234457.724758  -661890.126931   720377.109707  2237690.632140  2309686.165440   120999.856991 -2060032.633167  -842307.501169  2265154.969227  1506284.701038 -2753235.226275 -2535039.319185  2789473.925741  3245436.093538 -2424202.203635 -3213939.092377  1953249.013663  2540447.151955 -1509940.417866 -1600997.489882  1086244.161827   771161.150183  -676589.525489  -244882.389597   339497.892395    18137.647364  -126753.927414    28331.138310    29077.827320   -17360.861391    -2117.511468     4115.462870    -1127.591147
     283.999058      281.591310      298.981157      296.456010      240.079027      333.441377      437.535741       90.372006       90.731357      829.455179      775.049168     -104.398654    -2169.077628     -577.369334    13316.515795     3641.557177   -48001.650319     -787.241603   145778.656774   -12372.177769  -383901.548784    -3019.948083   902350.931247   303679.692595 -1750212.606508 -1631913.214155  2049483.299831  4582229.036397  1295455.657905 -5265669.691646 -8321730.510739 -5161458.580848   778126.267934  5060387.524181  6575822.646321  4765578.278005 *************** *************** *************** *************** *************** *************** *************** *************** *************** *************** *************** *************** *************** *************** *************** *************** *************** *************** *************** *************** *************** *************** *************** *************** *************** *************** *************** -2630574.868829  1923752.698287  1650827.375833  1930138.125421  2669681.585335  2875043.011939  1624248.742629  -916439.501730 -2461114.344053  -701393.869443  2277567.181925  1384565.378331 -2636543.378649 -2345159.971075  2838662.677860  3272841.854176 -2614534.070949 -3577517.544227  2192407.544508  3128490.762347 -1769470.838800 -2202256.467654  1364843.873024  1214389.594319  -942824.900466  -474651.442011   541822.064118    85903.278429  -239810.726304    33553.592231    71010.948084   -33587.319304    -9677.668440    11745.464365    -2183.938501    -2146.730153