<?xml version="1.0"?>
<VTKFile type="StructuredGrid">
<StructuredGrid WholeExtent="     0    99     0    99     0     0">
<Piece Extent="     0    99     0    99     0     0">
<Points>
<DataArray type="Float32" NumberOfComponents="3"/>
      -0.002500       -0.002500        0.000000       -0.002449       -0.002500        0.000000       -0.002399       -0.002500        0.000000       -0.002348       -0.002500        0.000000       -0.002298       -0.002500        0.000000       -0.002247       -0.002500        0.000000       -0.002197       -0.002500        0.000000       -0.002146       -0.002500        0.000000       -0.002096       -0.002500        0.000000       -0.002045       -0.002500        0.000000       -0.001995       -0.002500        0.000000       -0.001944       -0.002500        0.000000       -0.001894       -0.002500        0.000000       -0.001843       -0.002500        0.000000       -0.001793       -0.002500        0.000000       -0.001742       -0.002500        0.000000       -0.001692       -0.002500        0.000000       -0.001641       -0.002500        0.000000       -0.001591       -0.002500        0.000000       -0.001540       -0.002500        0.000000       -0.001490       -0.002500        0.000000       -0.001439       -0.002500        0.000000       -0.001389       -0.002500        0.000000       -0.001338       -0.002500        0.000000       -0.001288       -0.002500        0.000000       -0.001237       -0.002500        0.000000       -0.001187       -0.002500        0.000000       -0.001136       -0.002500        0.000000       -0.001086       -0.002500        0.000000       -0.001035       -0.002500        0.000000       -0.000985       -0.002500        0.000000       -0.000934       -0.002500        0.000000       -0.000884       -0.002500        0.000000       -0.000833       -0.002500        0.000000       -0.000783       -0.002500        0.000000       -0.000732       -0.002500        0.000000       -0.000682       -0.002500        0.000000       -0.000631       -0.002500        0.000000       -0.000581       -0.002500        0.000000       -0.000530       -0.002500        0.000000       -0.000480       -0.002500        0.000000       -0.000429       -0.002500        0.000000       -0.000379       -0.002500        0.000000       -0.000328       -0.002500        0.000000       -0.000278       -0.002500        0.000000       -0.000227       -0.002500        0.000000       -0.000177       -0.002500        0.000000       -0.000126       -0.002500        0.000000       -0.000076       -0.002500        0.000000       -0.000025       -0.002500        0.000000        0.000025       -0.002500        0.000000        0.000076       -0.002500        0.000000        0.000126       -0.002500        0.000000        0.000177       -0.002500        0.000000        0.000227       -0.002500        0.000000        0.000278       -0.002500        0.000000        0.000328       -0.002500        0.000000        0.000379       -0.002500        0.000000        0.000429       -0.002500        0.000000        0.000480       -0.002500        0.000000        0.000530       -0.002500        0.000000        0.000581       -0.002500        0.000000        0.000631       -0.002500        0.000000        0.000682       -0.002500        0.000000        0.000732       -0.002500        0.000000        0.000783       -0.002500        0.000000        0.000833       -0.002500        0.000000        0.000884       -0.002500        0.000000        0.000934       -0.002500        0.000000        0.000985       -0.002500        0.000000        0.001035       -0.002500        0.000000        0.001086       -0.002500        0.000000        0.001136       -0.002500        0.000000        0.001187       -0.002500        0.000000        0.001237       -0.002500        0.000000        0.001288       -0.002500        0.000000        0.001338       -0.002500        0.000000        0.001389       -0.002500        0.000000        0.001439       -0.002500        0.000000        0.001490       -0.002500        0.000000        0.001540       -0.002500        0.000000        0.001591       -0.002500        0.000000        0.001641       -0.002500        0.000000        0.001692       -0.002500        0.000000        0.001742       -0.002500        0.000000        0.001793       -0.002500        0.000000        0.001843       -0.002500        0.000000        0.001894       -0.002500        0.000000        0.001944       -0.002500        0.000000        0.001995       -0.002500        0.000000        0.002045       -0.002500        0.000000        0.002096       -0.002500        0.000000        0.002146       -0.002500        0.000000        0.002197       -0.002500        0.000000        0.002247       -0.002500        0.000000        0.002298       -0.002500        0.000000        0.002348       -0.002500        0.000000        0.002399       -0.002500        0.000000        0.002449       -0.002500        0.000000        0.002500       -0.002500        0.000000
      -0.002500       -0.002449        0.000000       -0.002449       -0.002449        0.000000       -0.002399       -0.002449        0.000000       -0.002348       -0.002449        0.000000       -0.002298       -0.002449        0.000000       -0.002247       -0.002449        0.000000       -0.002197       -0.002449        0.000000       -0.002146       -0.002449        0.000000       -0.002096       -0.002449        0.000000       -0.002045       -0.002449        0.000000       -0.001995       -0.002449        0.000000       -0.001944       -0.002449        0.000000       -0.001894       -0.002449        0.000000       -0.001843       -0.002449        0.000000       -0.001793       -0.002449        0.000000       -0.001742       -0.002449        0.000000       -0.001692       -0.002449        0.000000       -0.001641       -0.002449        0.000000       -0.001591       -0.002449        0.000000       -0.001540       -0.002449        0.000000       -0.001490       -0.002449        0.000000       -0.001439       -0.002449        0.000000       -0.001389       -0.002449        0.000000       -0.001338       -0.002449        0.000000       -0.001288       -0.002449        0.000000       -0.001237       -0.002449        0.000000       -0.001187       -0.002449        0.000000       -0.001136       -0.002449        0.000000       -0.001086       -0.002449        0.000000       -0.001035       -0.002449        0.000000       -0.000985       -0.002449        0.000000       -0.000934       -0.002449        0.000000       -0.000884       -0.002449        0.000000       -0.000833       -0.002449        0.000000       -0.000783       -0.002449        0.000000       -0.000732       -0.002449        0.000000       -0.000682       -0.002449        0.000000       -0.000631       -0.002449        0.000000       -0.000581       -0.002449        0.000000       -0.000530       -0.002449        0.000000       -0.000480       -0.002449        0.000000       -0.000429       -0.002449        0.000000       -0.000379       -0.002449        0.000000       -0.000328       -0.002449        0.000000       -0.000278       -0.002449        0.000000       -0.000227       -0.002449        0.000000       -0.000177       -0.002449        0.000000       -0.000126       -0.002449        0.000000       -0.000076       -0.002449        0.000000       -0.000025       -0.002449        0.000000        0.000025       -0.002449        0.000000        0.000076       -0.002449        0.000000        0.000126       -0.002449        0.000000        0.000177       -0.002449        0.000000        0.000227       -0.002449        0.000000        0.000278       -0.002449        0.000000        0.000328       -0.002449        0.000000        0.000379       -0.002449        0.000000        0.000429       -0.002449        0.000000        0.000480       -0.002449        0.000000        0.000530       -0.002449        0.000000        0.000581       -0.002449        0.000000        0.000631       -0.002449        0.000000        0.000682       -0.002449        0.000000        0.000732       -0.002449        0.000000        0.000783       -0.002449        0.000000        0.000833       -0.002449        0.000000        0.000884       -0.002449        0.000000        0.000934       -0.002449        0.000000        0.000985       -0.002449        0.000000        0.001035       -0.002449        0.000000        0.001086       -0.002449        0.000000        0.001136       -0.002449        0.000000        0.001187       -0.002449        0.000000        0.001237       -0.002449        0.000000        0.001288       -0.002449        0.000000        0.001338       -0.002449        0.000000        0.001389       -0.002449        0.000000        0.001439       -0.002449        0.000000        0.001490       -0.002449        0.000000        0.001540       -0.002449        0.000000        0.001591       -0.002449        0.000000        0.001641       -0.002449        0.000000        0.001692       -0.002449        0.000000        0.001742       -0.002449        0.000000        0.001793       -0.002449        0.000000        0.001843       -0.002449        0.000000        0.001894       -0.002449        0.000000        0.001944       -0.002449        0.000000        0.001995       -0.002449        0.000000        0.002045       -0.002449        0.000000        0.002096       -0.002449        0.000000        0.002146       -0.002449        0.000000        0.002197       -0.002449        0.000000        0.002247       -0.002449        0.000000        0.002298       -0.002449        0.000000        0.002348       -0.002449        0.000000        0.002399       -0.002449        0.000000        0.002449       -0.002449        0.000000        0.002500       -0.002449        0.000000
[...]
<CellData Scalars="Temprature, U, V">
<DataArray type="Float32" Name="Temp, K"/>
     292.964269      293.592835      293.429980      292.199967      290.113932      287.327085      283.816717      279.640650      274.964595      269.933931      264.660459      259.264956      253.869389      248.572206      243.445990      238.544065      233.902552      229.541357      225.467431      221.678608      218.166931      214.920640      211.926128      209.167967      206.631037      204.299787      202.158573      200.193838      198.388767      196.721450      195.139402      193.528451      191.605996      188.635878      183.232842      172.415872      150.941888      110.250937       37.518890      -84.493789     -275.327648     -554.682380     -935.293487    -1417.850461    -1983.093697    -2591.027595    -3181.624679    -3683.791592    -4028.655117    -4166.989011    -4076.424454    -3770.921682    -3296.812258    -2718.590855    -2108.572687    -1529.328194    -1026.821249     -624.847733     -325.072013     -117.068551       17.334189       98.726312      144.750875      169.316323      181.761835      187.957165      191.249160      193.313498      194.954709      196.538460      198.189198      199.973989      201.914152      204.026700      206.327688      208.831348      211.551931      214.502946      217.703098      221.182434      224.953967      228.947269      233.092078      237.664742      243.102004      248.551668      252.117350      255.859796      265.581301      275.753791      270.526681      263.863476      291.488550      316.569147      268.726818      238.909570      348.066863      374.098684      -51.583431
     292.503099      293.958225      294.898595      293.950996      291.010146      286.512001      280.562792      273.162975      264.541728      255.017195      244.843671      234.254893      223.499342      212.802825      202.341454      192.246445      182.612037      173.498424      164.936270      156.933798      149.483845      142.569146      136.166671      130.249474      124.788680      119.756257      115.120232      110.855759      106.927359      103.294532       99.867917       96.405952       92.395199       86.404302       75.771005       54.592601       12.689457      -66.833495     -209.309145     -448.824889     -824.464389    -1375.042243    -2126.814296    -3080.987767    -4200.456236    -5405.344215    -6577.095914    -7574.358732    -8261.265498    -8536.980529    -8359.372112    -7754.992993    -6815.182189    -5668.776413    -4458.920666    -3311.365851    -2315.873790    -1519.427709     -926.481833     -515.847682     -250.705708      -90.466734        0.062437       48.266728       72.685574       84.956785       91.596101       95.883435       99.394726      102.831321      106.423988      110.306919      114.519660      119.095872      124.065672      129.456545      135.296014      141.613806      148.451675      155.846904      163.757733      172.064048      180.917664      190.945331      201.866153      211.119883      218.449393      231.473254      251.756361      257.507323      243.197168      262.356740      322.233936      300.446848      203.126634      285.299640      472.280266      222.042060     -369.613723
     291.909458      293.301782      295.485255      296.830385      296.076942      293.339259      289.065072      283.285468      276.000129      267.466250      258.004980      247.869313      237.300952      226.556047      215.864449      205.405450      195.312581      185.680887      176.570589      168.012493      160.014806      152.570270      145.661207      139.264978      133.354181      127.901801      122.877197      118.253931      114.001899      110.101577      106.548499      103.351839      100.640182       98.709405       98.357708      100.959249      109.479212      128.614588      165.570556      230.257100      334.244557      489.444680      703.777628      978.585732     1303.324838     1655.304114     1999.088843     2292.974730     2495.427937     2578.084915     2526.198132     2348.635611     2072.310654     1736.195924     1382.869844     1048.652073      761.012217      532.783021      364.659353      249.807121      177.336992      135.109115      112.790542      102.427551       98.780653       98.695648      100.388103      102.985440      106.107285      109.617428      113.464748      117.662256      122.229535      127.191827      132.576595      138.412347      144.729190      151.563677      158.946152      166.848413      175.188593      184.090688      194.041292      204.820851      214.283467      221.930983      234.307562      254.136766      262.045509      247.694798      260.165736      322.794554      318.293784      207.686948      247.325319      476.501060      359.635113     -225.840281     -529.106368
     291.455791      292.447613      294.721545      297.650716      299.346464      298.766031      296.249011      292.203424      286.581725      279.400152      270.943795      261.532357      251.419006      240.855322      230.105326      219.403222      208.932039      198.827761      189.185949      180.066813      171.501247      163.498013      156.049545      149.138443      142.741655      136.831707      131.382274      126.363362      121.752485      117.545492      113.788480      110.738579      109.042346      110.539981      119.070308      142.763626      196.443839      304.836082      505.367016      848.906257     1395.087112     2203.071459     3314.581043     4733.471989     6406.506357     8214.413391     9978.298514    11484.462293    12525.924173    12948.200816    12686.229835    11780.005781    10366.421674     8643.080474     6826.433559     5107.108804     3620.280473     2434.782755     1557.762485      955.123618      569.998032      341.176919      215.357794      151.783610      122.939409      111.880594      109.296919      110.512512      113.378891      117.027674      121.176445      125.725764      130.683022      136.066961      141.904574      148.226025      155.064105      162.444761      170.351465      178.732725      187.686801      197.577596      208.232554      217.902508      225.935627      237.735421      256.830458      266.840150      253.595650      259.056476      320.953215      336.337531      221.611191      209.389688      456.879548      476.223688      -84.706353     -559.424769     -463.606655
     291.137591      291.904463      293.600425      296.829681      300.466002      302.445328      302.036545      299.764601      295.948519      290.473648      283.388083      275.000475      265.625849      255.520074      244.945986      234.175443      223.447625      212.950146      202.821678      193.157904      184.018493      175.434424      167.415237      159.953643      153.032735      146.628453      140.715021      135.263268      130.245853      125.629231      121.365062      117.376994      113.458042      109.160035      103.371700       94.022550       76.961565       45.327436      -11.479337     -108.101288     -261.959132     -490.884851     -807.570097    -1214.351545    -1696.582691    -2220.373668    -2733.443591    -3173.081162    -3477.740779    -3602.493713    -3526.792484    -3263.016572    -2851.327246    -2350.310072    -1823.602413    -1326.577503     -898.971460     -559.720363     -310.037889     -139.178542      -30.288210       34.718812       71.308150       91.134612      101.923731      108.309606      112.867413      116.849445      120.830173      125.048506      129.615348      134.573852      139.959998      145.804322      152.135843      158.984450      166.373657      174.296994      182.725377      191.734673      201.585692      212.138126      222.002387      230.464005      241.813756      259.963390      271.751339      260.648826      259.784294      317.277861      352.051212      244.441917      178.637223      413.850397      567.309939       80.626537     -559.794348     -564.414807     -318.099089
     290.814914      291.657002      292.894642      295.413305      299.659119      303.929905      306.133546      305.915621      303.914918      300.325605      294.988595      287.994078      279.667162      270.316867      260.204891      249.606010      238.799601      228.030652      217.492809      207.327986      197.631776      188.462163      179.849956      171.805036      164.321225      157.382333      150.964405      145.041083      139.581867      134.531754      129.784889      124.990162      119.276334      110.313286       92.950076       56.448055      -19.273601     -168.121426     -441.901115     -911.613427    -1661.843993    -2777.192051    -4318.941551    -6295.638562    -8635.611047   -11172.911468   -13655.831555   -15782.263165   -17258.034863   -17862.441687   -17501.514623   -16231.156836   -14244.187951   -11821.664572    -9270.029385    -6858.854509    -4778.312143    -3123.678258    -1904.073474    -1069.051049     -537.083164     -221.513491      -47.140040       42.893228       86.742052      107.558123      117.949201      124.198885      129.133588      133.892266      138.892557      144.294005      150.149221      156.495588      163.361759      170.769627      178.720591      187.201493      196.269213      206.101135      216.577615      226.619571      235.525832      246.574950      263.666624      276.753368      268.531354      262.780033      312.835620      363.684410      273.697298      160.978741      353.481564      622.585068      266.178416     -508.558803     -693.837671     -336.102835     -256.720449
     290.404287      291.401165      292.707090      294.444850      297.941528      303.230433      308.038618      310.428391      310.438127      308.732191      305.364537      300.159798      293.253760      284.979907      275.642142      265.511428      254.874388      244.016979      233.190766      222.597308      212.383427      202.644678      193.436563      184.788153      176.709265      169.195235      162.230044      155.791839      149.853444      144.391436      139.398380      134.908928      131.114903      128.531185      128.504177      133.776913      149.782128      185.796948      256.299340      381.471523      585.722416      894.104184     1325.180101     1882.882149     2547.846799     3273.184513     3986.319078     4599.412212     5026.253410     5202.403209     5099.499227     4734.136834     4162.533699     3466.949539     2736.599414     2049.428299     1460.166846      995.077875      655.633013      426.243251      282.882968      200.313153      157.010536      136.955628      129.593598      128.667969      130.802850      134.406632      138.792388      143.716307      149.110006      154.980782      161.348504      168.239300      175.675467      183.664178      192.202576      201.331779      211.164637      221.594327      231.798960      241.142470      252.036139      268.059412      281.919261      276.933265      268.134052      308.896384      370.542985      305.693677      159.738195      285.814090      634.979655      454.792507     -390.296040     -823.799353     -432.964271     -162.820985     -316.429557
     289.954870      290.942015      292.606074      294.258826      296.601345      301.244521      307.552653      312.792113      315.359343      315.645171      314.252153      311.100774      306.026951      299.208734      290.980454      281.644067      271.483635      260.796983      249.874549      238.974263      228.307443      218.028788      208.235301      198.979955      190.288699      182.169905      174.619171      167.622454      161.157749      155.223718      149.873345      145.423307      142.837493      144.794157      157.576072      194.468301      280.799415      459.992643      799.122001     1390.906703     2347.199288     3781.082325     5776.254110     8347.857857    11405.436488    14733.043408    17999.606563    20805.599358    22760.168669    23568.680952    23104.305033    21439.796130    18829.678296    15646.832807    12297.256507     9137.501215     6418.035678     4262.848485     2682.182419     1607.042983      928.442246      531.547874      317.299755      211.467852      164.638857      147.229178      143.314342      145.122554      149.280091      154.497266      160.352451      166.741415      173.664877      181.138375      189.173502      197.774049      206.968222      216.820992      227.234272      237.591391      247.348004      258.209774      273.239543      287.391963      285.627349      275.652921      306.627981      373.014030      336.563823      174.983146      222.383149      604.494426      623.113411     -202.797909     -916.415665     -610.160545     -103.294089     -223.420585     -397.023267
     289.566842      290.377946      292.184583      294.379049      296.302971      299.438296      305.375900      312.625312      318.200036      320.968022      321.582767      320.514756      317.576396      312.636870      305.907422      297.716994      288.370828      278.171164      267.426668      256.428953      245.439645      234.680733      224.318018      214.453912      205.140275      196.399066      188.236335      180.646437      173.616498      167.122969      161.120996      155.514963      150.031459      143.997741      135.758601      121.839828       95.421448       44.656694      -49.082645     -211.961648     -476.019264     -874.359130    -1432.182928    -2155.632376    -3020.591079    -3966.503887    -4898.842603    -5702.472961    -6264.005119    -6497.786232    -6366.360088    -5890.828179    -5144.880674    -4236.598198    -3283.186766    -2386.982139    -1619.161519    -1013.788848     -572.277451     -273.561039      -85.700395       24.437822       84.991823      116.741704      133.300753      142.685310      149.164781      154.761522      160.361580      166.309467      172.736988      179.694236      187.210111      195.297987      203.964351      213.227401      223.118500      233.546446      244.052577      254.189733      265.113730      279.282650      293.351046      294.506372      284.967910      306.873057      372.326376      363.186263      203.781940      173.420494      539.048732      748.557480       39.574141     -932.750700     -848.836009     -123.062581      -68.543475     -417.012717     -388.602470
     289.266071      289.939494      291.481517      294.125866      296.658565      298.866525      303.049721      310.374843      318.443985      324.286335      327.306837      328.301157      327.565288      324.840885      320.044266      313.406508      305.245621      295.876710      285.627911      274.820962      263.745199      252.660340      241.796300      231.331880      221.378941      211.991838      203.190613      194.977104      187.346645      180.267399      173.642175      167.102874      159.541235      147.924562      124.974118       75.098247      -31.808628     -248.008518     -655.042867    -1366.541708    -2520.952677    -4259.728382    -6689.539842    -9833.510860   -13584.512750   -17679.202476   -21709.784715   -25181.471112   -27608.124218   -28621.652121   -28061.923655   -26017.349565   -22802.673168   -18880.636072   -14754.984139   -10867.505467    -7527.466322    -4886.469753    -2954.980126    -1645.243042     -820.943058     -339.449981      -78.445989       53.087933      115.291521      143.815534      157.673938      166.011641      172.746305      179.372078      186.392384      193.955168      202.098369      210.833345      220.169945      230.116945      240.589932      251.247524      261.730325      272.780106      286.248515      299.983366      303.585730      295.657985      310.052669      370.150473      383.777251      241.231712      145.602326      452.702253      815.773723      307.785402     -844.869499    -1105.710578     -261.351937      110.803832     -347.666047     -497.900489     -295.483405
     288.976485      289.704967      290.877902      293.329896      296.725453      299.391414      302.021795      307.535137      316.262257      325.008240      331.091658      334.437102      335.855129      335.455593      332.951468      328.312412      321.773135      313.633466      304.224297      293.910834      283.036072      271.886212      260.711467      249.741412      239.164991      229.106475      219.627170      210.747916      202.467988      194.779357      187.684622      181.233590      175.660642      171.662934      171.052546      177.829806      199.968816      251.585247      355.116362      542.349548      852.616817     1326.894327     1996.991762     2871.560411     3922.245061     5075.642597     6216.126444     7202.107060     7893.602361     8184.213418     8027.208056     7447.886650     6536.800764     5427.102724     4263.253867     3171.238337     2238.294236     1505.949930      975.398700      620.173656      400.643772      276.029464      211.875952      182.924925      172.764683      171.845683      175.188658      180.493268      186.812360      193.822789      201.438087      209.649135      218.460281      227.878641      237.899828      248.446050      259.259716      270.052141      281.261562      294.190103      307.462357      312.979954      307.353173      316.193171      368.179206      398.038693      281.847742      140.987458      362.114320      820.749847      565.021505     -646.132372    -1320.598086     -531.062838      246.550806     -158.273885     -606.469146     -359.425954     -225.611722
     288.612187      289.513337      290.637179      292.454986      295.974913      299.904695      302.558877      305.883822      312.983499      323.043386      332.329807      338.673260      342.427585      344.305572      344.245300      341.972597      337.512903      331.087252      322.964649      313.492113      303.084529      292.121672      280.893636      269.635923      258.567446      247.879847      237.707586      228.122684      219.147433      210.792285      203.114082      196.420960      191.798058      192.387096      206.013477      249.824008      357.426008      587.886536     1034.277906     1827.316921     3127.599188     5100.742968     7873.638591    11477.529052    15792.941186    20518.237066    25182.146872    29210.007218    32034.995632    33226.138135    32594.049041    30239.263389    26526.664026    21994.424834    17228.678612    12743.066391     8896.267549     5862.830956     3652.891232     2162.503307     1232.071724      695.516593      411.138161      274.120261      215.701243      195.500889      192.237249      195.871352      202.218330      209.758441      218.031190      226.932013      236.446800      246.562825      257.208777      268.183958      279.250247      290.628248      303.159359      315.936646      322.866762      319.799105      325.037875      367.807210      406.914787      320.848836      157.309288      282.577858      771.364976      776.216975     -355.206615    -1432.737393     -905.354347      258.685828      137.936999     -631.866870     -532.899817     -154.431460     -263.499889