<?xml version="1.0"?>
<VTKFile type="StructuredGrid">
<StructuredGrid WholeExtent="     0    99     0    99     0     0">
<Piece Extent="     0    99     0    99     0     0">
<Points>
<DataArray type="Float32" NumberOfComponents="3"/>
      -0.002500       -0.002500        0.000000       -0.002449       -0.002500        0.000000       -0.002399       -0.002500        0.000000       -0.002348       -0.002500        0.000000       -0.002298       -0.002500        0.000000       -0.002247       -0.002500        0.000000       -0.002197       -0.002500        0.000000       -0.002146       -0.002500        0.000000       -0.002096       -0.002500        0.000000       -0.002045       -0.002500        0.000000       -0.001995       -0.002500        0.000000       -0.001944       -0.002500        0.000000       -0.001894       -0.002500        0.000000       -0.001843       -0.002500        0.000000       -0.001793       -0.002500        0.000000       -0.001742       -0.002500        0.000000       -0.001692       -0.002500        0.000000       -0.001641       -0.002500        0.000000       -0.001591       -0.002500        0.000000       -0.001540       -0.002500        0.000000       -0.001490       -0.002500        0.000000       -0.001439       -0.002500        0.000000       -0.001389       -0.002500        0.000000       -0.001338       -0.002500        0.000000       -0.001288       -0.002500        0.000000       -0.001237       -0.002500        0.000000       -0.001187       -0.002500        0.000000       -0.001136       -0.002500        0.000000       -0.001086       -0.002500        0.000000       -0.001035       -0.002500        0.000000       -0.000985       -0.002500        0.000000       -0.000934       -0.002500        0.000000       -0.000884       -0.002500        0.000000       -0.000833       -0.002500        0.000000       -0.000783       -0.002500        0.000000       -0.000732       -0.002500        0.000000       -0.000682       -0.002500        0.000000       -0.000631       -0.002500        0.000000       -0.000581       -0.002500        0.000000       -0.000530       -0.002500        0.000000       -0.000480       -0.002500        0.000000       -0.000429       -0.002500        0.000000       -0.000379       -0.002500        0.000000       -0.000328       -0.002500        0.000000       -0.000278       -0.002500        0.000000       -0.000227       -0.002500        0.000000       -0.000177       -0.002500        0.000000       -0.000126       -0.002500        0.000000       -0.000076       -0.002500        0.000000       -0.000025       -0.002500        0.000000        0.000025       -0.002500        0.000000        0.000076       -0.002500        0.000000        0.000126       -0.002500        0.000000        0.000177       -0.002500        0.000000        0.000227       -0.002500        0.000000        0.000278       -0.002500        0.000000        0.000328       -0.002500        0.000000        0.000379       -0.002500        0.000000        0.000429       -0.002500        0.000000        0.000480       -0.002500        0.000000        0.000530       -0.002500        0.000000        0.000581       -0.002500        0.000000        0.000631       -0.002500        0.000000        0.000682       -0.002500        0.000000        0.000732       -0.002500        0.000000        0.000783       -0.002500        0.000000        0.000833       -0.002500        0.000000        0.000884       -0.002500        0.000000        0.000934       -0.002500        0.000000        0.000985       -0.002500        0.000000        0.001035       -0.002500        0.000000        0.001086       -0.002500        0.000000        0.001136       -0.002500        0.000000        0.001187       -0.002500        0.000000        0.001237       -0.002500        0.000000        0.001288       -0.002500        0.000000        0.001338       -0.002500        0.000000        0.001389       -0.002500        0.000000        0.001439       -0.002500        0.000000        0.001490       -0.002500        0.000000        0.001540       -0.002500        0.000000        0.001591       -0.002500        0.000000        0.001641       -0.002500        0.000000        0.001692       -0.002500        0.000000        0.001742       -0.002500        0.000000        0.001793       -0.002500        0.000000        0.001843       -0.002500        0.000000        0.001894       -0.002500        0.000000        0.001944       -0.002500        0.000000        0.001995       -0.002500        0.000000        0.002045       -0.002500        0.000000        0.002096       -0.002500        0.000000        0.002146       -0.002500        0.000000        0.002197       -0.002500        0.000000        0.002247       -0.002500        0.000000        0.002298       -0.002500        0.000000        0.002348       -0.002500        0.000000        0.002399       -0.002500        0.000000        0.002449       -0.002500        0.000000        0.002500       -0.002500        0.000000
      -0.002500       -0.002449        0.000000       -0.002449       -0.002449        0.000000       -0.002399       -0.002449        0.000000       -0.002348       -0.002449        0.000000       -0.002298       -0.002449        0.000000       -0.002247       -0.002449        0.000000       -0.002197       -0.002449        0.000000       -0.002146       -0.002449        0.000000       -0.002096       -0.002449        0.000000       -0.002045       -0.002449        0.000000       -0.001995       -0.002449        0.000000       -0.001944       -0.002449        0.000000       -0.001894       -0.002449        0.000000       -0.001843       -0.002449        0.000000       -0.001793       -0.002449        0.000000       -0.001742       -0.002449        0.000000       -0.001692       -0.002449        0.000000       -0.001641       -0.002449        0.000000       -0.001591       -0.002449        0.000000       -0.001540       -0.002449        0.000000       -0.001490       -0.002449        0.000000       -0.001439       -0.002449        0.000000       -0.001389       -0.002449        0.000000       -0.001338       -0.002449        0.000000       -0.001288       -0.002449        0.000000       -0.001237       -0.002449        0.000000       -0.001187       -0.002449        0.000000       -0.001136       -0.002449        0.000000       -0.001086       -0.002449        0.000000       -0.001035       -0.002449        0.000000       -0.000985       -0.002449        0.000000       -0.000934       -0.002449        0.000000       -0.000884       -0.002449        0.000000       -0.000833       -0.002449        0.000000       -0.000783       -0.002449        0.000000       -0.000732       -0.002449        0.000000       -0.000682       -0.002449        0.000000       -0.000631       -0.002449        0.000000       -0.000581       -0.002449        0.000000       -0.000530       -0.002449        0.000000       -0.000480       -0.002449        0.000000       -0.000429       -0.002449        0.000000       -0.000379       -0.002449        0.000000       -0.000328       -0.002449        0.000000       -0.000278       -0.002449        0.000000       -0.000227       -0.002449        0.000000       -0.000177       -0.002449        0.000000       -0.000126       -0.002449        0.000000       -0.000076       -0.002449        0.000000       -0.000025       -0.002449        0.000000        0.000025       -0.002449        0.000000        0.000076       -0.002449        0.000000        0.000126       -0.002449        0.000000        0.000177       -0.002449        0.000000        0.000227       -0.002449        0.000000        0.000278       -0.002449        0.000000        0.000328       -0.002449        0.000000        0.000379       -0.002449        0.000000        0.000429       -0.002449        0.000000        0.000480       -0.002449        0.000000        0.000530       -0.002449        0.000000        0.000581       -0.002449        0.000000        0.000631       -0.002449        0.000000        0.000682       -0.002449        0.000000        0.000732       -0.002449        0.000000        0.000783       -0.002449        0.000000        0.000833       -0.002449        0.000000        0.000884       -0.002449        0.000000        0.000934       -0.002449        0.000000        0.000985       -0.002449        0.000000        0.001035       -0.002449        0.000000        0.001086       -0.002449        0.000000        0.001136       -0.002449        0.000000        0.001187       -0.002449        0.000000        0.001237       -0.002449        0.000000        0.001288       -0.002449        0.000000        0.001338       -0.002449        0.000000        0.001389       -0.002449        0.000000        0.001439       -0.002449        0.000000        0.001490       -0.002449        0.000000        0.001540       -0.002449        0.000000        0.001591       -0.002449        0.000000        0.001641       -0.002449        0.000000        0.001692       -0.002449        0.000000        0.001742       -0.002449        0.000000        0.001793       -0.002449        0.000000        0.001843       -0.002449        0.000000        0.001894       -0.002449        0.000000        0.001944       -0.002449        0.000000        0.001995       -0.002449        0.000000        0.002045       -0.002449        0.000000        0.002096       -0.002449        0.000000        0.002146       -0.002449        0.000000        0.002197       -0.002449        0.000000        0.002247       -0.002449        0.000000        0.002298       -0.002449        0.000000        0.002348       -0.002449        0.000000        0.002399       -0.002449        0.000000        0.002449       -0.002449        0.000000        0.002500       -0.002449        0.000000
[...]
<CellData Scalars="Temprature, U, V">
<DataArray type="Float32" Name="Temp, K"/>
     292.104827      316.559985       86.681457    -1345.949125    38193.455028  -207991.743901  -222952.336382  8614093.815607 *************** 23576267.613539 *************** *************** *************** *************** *************** *************** *************** *************** *************** *************** *************** *************** *************** *************** *************** *************** *************** *************** *************** *************** *************** *************** *************** *************** *************** *************** *************** *************** *************** *************** *************** *************** *************** *************** *************** *************** *************** *************** *************** *************** *************** *************** *************** *************** *************** *************** *************** *************** *************** *************** *************** *************** *************** *************** *************** *************** *************** *************** *************** *************** *************** *************** *************** *************** *************** *************** *************** *************** *************** *************** *************** *************** *************** *************** *************** *************** *************** *************** *************** *************** *************** *************** 92637986.651509 23325650.850651 -6270971.490300   308816.340780    58645.696396    -7051.819194     -557.760613
     287.887726      255.989454     1739.391632   -11443.628934     2864.850267   556568.083165 -3847070.212914  7364258.040857 49292366.942772 *************** *************** *************** *************** *************** *************** *************** *************** *************** *************** *************** *************** *************** *************** *************** *************** *************** *************** *************** *************** *************** *************** *************** *************** *************** *************** *************** *************** *************** *************** *************** *************** *************** *************** *************** *************** *************** *************** *************** *************** *************** *************** *************** *************** *************** *************** *************** *************** *************** *************** *************** *************** *************** *************** *************** *************** *************** *************** *************** *************** *************** *************** *************** *************** *************** *************** *************** *************** *************** *************** *************** *************** *************** *************** *************** *************** *************** *************** *************** *************** *************** *************** *************** *************** ***************  1420775.709964  1953603.325989  -288131.811834     2304.734990     1220.851356
     316.739504      -94.594933     -970.290753    44792.830433  -285703.576538   237774.501867  7152072.953076 *************** 86917845.560849 *************** *************** *************** *************** *************** *************** *************** *************** *************** *************** *************** *************** *************** *************** *************** *************** *************** *************** *************** *************** *************** *************** *************** *************** *************** *************** *************** *************** *************** *************** *************** *************** *************** *************** *************** *************** *************** *************** *************** *************** *************** *************** *************** *************** *************** *************** *************** *************** *************** *************** *************** *************** *************** *************** *************** *************** *************** *************** *************** *************** *************** *************** *************** *************** *************** *************** *************** *************** *************** *************** *************** *************** *************** *************** *************** *************** *************** *************** *************** *************** *************** *************** *************** *************** 30749991.551602 31378672.239263 -6766436.373944   188273.252387    98515.933183   -10140.068050
     233.208731     2668.304617   -15339.847545   -17656.557233   794744.459016 -4411047.210091  4806578.675150 66900368.392900 *************** *************** *************** *************** *************** *************** *************** *************** *************** *************** *************** *************** *************** *************** *************** *************** *************** *************** *************** *************** *************** *************** *************** *************** *************** *************** *************** *************** *************** *************** *************** *************** *************** *************** *************** *************** *************** *************** *************** *************** *************** *************** *************** *************** *************** *************** *************** *************** *************** *************** *************** *************** *************** *************** *************** *************** *************** *************** *************** *************** *************** *************** *************** *************** *************** *************** *************** *************** *************** *************** *************** *************** *************** *************** *************** *************** *************** *************** *************** *************** *************** *************** *************** *************** *************** *************** ***************  4881929.185908  2387826.662406  -454642.354944     9044.349755
    -277.771447    -2724.303297    66464.147249  -339805.718210   -86484.702188  9523956.743281 *************** 57332307.072791 *************** *************** *************** *************** *************** *************** *************** *************** *************** *************** *************** *************** *************** *************** *************** *************** *************** *************** *************** *************** *************** *************** *************** *************** *************** *************** *************** *************** *************** *************** *************** *************** *************** *************** *************** *************** *************** *************** *************** *************** *************** *************** *************** *************** *************** *************** *************** *************** *************** *************** *************** *************** *************** *************** *************** *************** *************** *************** *************** *************** *************** *************** *************** *************** *************** *************** *************** *************** *************** *************** *************** *************** *************** *************** *************** *************** *************** *************** *************** *************** *************** *************** *************** *************** *************** *************** 71193278.607979 31888716.164764 -9238377.358162   497027.616792   139549.307233
    3791.274837   -19333.135133   -54633.118618  1079310.592539 -4747737.018734   952182.680936 83168145.601198 *************** *************** *************** *************** *************** *************** *************** *************** *************** *************** *************** *************** *************** *************** *************** *************** *************** *************** *************** *************** *************** *************** *************** *************** *************** *************** *************** *************** *************** *************** *************** *************** *************** *************** *************** *************** *************** *************** *************** *************** *************** *************** *************** *************** *************** *************** *************** *************** *************** *************** *************** *************** *************** *************** *************** *************** *************** *************** *************** *************** *************** *************** *************** *************** *************** *************** *************** *************** *************** *************** *************** *************** *************** *************** *************** *************** *************** *************** *************** *************** *************** *************** *************** *************** *************** *************** *************** *************** ***************  9913439.081084  2633020.037488  -688668.462327
   -4124.602178    95047.351288  -375033.153840  -585742.035536 11883994.712757 *************** 21455247.462778 *************** *************** *************** *************** *************** *************** *************** *************** *************** *************** *************** *************** *************** *************** *************** *************** *************** *************** *************** *************** *************** *************** *************** *************** *************** *************** *************** *************** *************** *************** *************** *************** *************** *************** *************** *************** *************** *************** *************** *************** *************** *************** *************** *************** *************** *************** *************** *************** *************** *************** *************** *************** *************** *************** *************** *************** *************** *************** *************** *************** *************** *************** *************** *************** *************** *************** *************** *************** *************** *************** *************** *************** *************** *************** *************** *************** *************** *************** *************** *************** *************** *************** *************** *************** *************** *************** *************** *************** *************** 28604003.913992 ***************   972792.624791
  -27345.822241  -113647.990784  1387793.090841 -4726702.308183 -3963021.552587 95767746.139162 *************** *************** *************** *************** *************** *************** *************** *************** *************** *************** *************** *************** *************** *************** *************** *************** *************** *************** *************** *************** *************** *************** *************** *************** *************** *************** *************** *************** *************** *************** *************** *************** *************** *************** *************** *************** *************** *************** *************** *************** *************** *************** *************** *************** *************** *************** *************** *************** *************** *************** *************** *************** *************** *************** *************** *************** *************** *************** *************** *************** *************** *************** *************** *************** *************** *************** *************** *************** *************** *************** *************** *************** *************** *************** *************** *************** *************** *************** *************** *************** *************** *************** *************** *************** *************** *************** *************** *************** *************** *************** *************** 16124327.411767  2580217.125911
  128904.883148  -377276.452128 -1256389.478046 13893932.987982 *************** *************** *************** *************** *************** *************** *************** *************** *************** *************** *************** *************** *************** *************** *************** *************** *************** *************** *************** *************** *************** *************** *************** *************** *************** *************** *************** *************** *************** *************** *************** *************** *************** *************** *************** *************** *************** *************** *************** *************** *************** *************** *************** *************** *************** *************** *************** *************** *************** *************** *************** *************** *************** *************** *************** *************** *************** *************** *************** *************** *************** *************** *************** *************** *************** *************** *************** *************** *************** *************** *************** *************** *************** *************** *************** *************** *************** *************** *************** *************** *************** *************** *************** *************** *************** *************** *************** *************** *************** *************** *************** *************** *************** 21327634.390287 ***************
 -139556.081262  1696695.893747 -4247187.013826 -9410081.586118 *************** *************** *************** *************** *************** *************** *************** *************** *************** *************** *************** *************** *************** *************** *************** *************** *************** *************** *************** *************** *************** *************** *************** *************** *************** *************** *************** *************** *************** *************** *************** *************** *************** *************** *************** *************** *************** *************** *************** *************** *************** *************** *************** *************** *************** *************** *************** *************** *************** *************** *************** *************** *************** *************** *************** *************** *************** *************** *************** *************** *************** *************** *************** *************** *************** *************** *************** *************** *************** *************** *************** *************** *************** *************** *************** *************** *************** *************** *************** *************** *************** *************** *************** *************** *************** *************** *************** *************** *************** *************** *************** *************** *************** *************** 20958120.551973
 -513331.161081 -2061125.849234 15199385.335463 *************** *************** *************** *************** *************** *************** *************** *************** *************** *************** *************** *************** *************** *************** *************** *************** *************** *************** *************** *************** *************** *************** *************** *************** *************** *************** *************** *************** *************** *************** *************** *************** *************** *************** *************** *************** *************** *************** *************** *************** *************** *************** *************** *************** *************** *************** *************** *************** *************** *************** *************** *************** *************** *************** *************** *************** *************** *************** *************** *************** *************** *************** *************** *************** *************** *************** *************** *************** *************** *************** *************** *************** *************** *************** *************** *************** *************** *************** *************** *************** *************** *************** *************** *************** *************** *************** *************** *************** *************** *************** *************** *************** *************** *************** *************** 14192974.403436
 2053576.569091 -3389014.086088 *************** *************** *************** *************** *************** *************** *************** *************** *************** *************** *************** *************** *************** *************** *************** *************** *************** *************** *************** *************** *************** *************** *************** *************** *************** *************** *************** *************** *************** *************** *************** *************** *************** *************** *************** *************** *************** *************** *************** *************** *************** *************** *************** *************** *************** *************** *************** *************** *************** *************** *************** *************** *************** *************** *************** *************** *************** *************** *************** *************** *************** *************** *************** *************** *************** *************** *************** *************** *************** *************** *************** *************** *************** *************** *************** *************** *************** *************** *************** *************** *************** *************** *************** *************** *************** *************** *************** *************** *************** *************** *************** *************** *************** *************** *************** 64763140.892824 ***************