<?xml version="1.0"?>
<VTKFile type="StructuredGrid">
<StructuredGrid WholeExtent="     0     9     0     9     0     0">
<Piece Extent="     0     9     0     9     0     0">
<Points>
<DataArray type="Float32" NumberOfComponents="3"/>
      -0.002500       -0.002500        0.000000       -0.001944       -0.002500        0.000000       -0.001389       -0.002500        0.000000       -0.000833       -0.002500        0.000000       -0.000278       -0.002500        0.000000        0.000278       -0.002500        0.000000        0.000833       -0.002500        0.000000        0.001389       -0.002500        0.000000        0.001944       -0.002500        0.000000        0.002500       -0.002500        0.000000
      -0.002500       -0.001944        0.000000       -0.001944       -0.001944        0.000000       -0.001389       -0.001944        0.000000       -0.000833       -0.001944        0.000000       -0.000278       -0.001944        0.000000        0.000278       -0.001944        0.000000        0.000833       -0.001944        0.000000        0.001389       -0.001944        0.000000        0.001944       -0.001944        0.000000        0.002500       -0.001944        0.000000
      -0.002500       -0.001389        0.000000       -0.001944       -0.001389        0.000000       -0.001389       -0.001389        0.000000       -0.000833       -0.001389        0.000000       -0.000278       -0.001389        0.000000        0.000278       -0.001389        0.000000        0.000833       -0.001389        0.000000        0.001389       -0.001389        0.000000        0.001944       -0.001389        0.000000        0.002500       -0.001389        0.000000
      -0.002500       -0.000833        0.000000       -0.001944       -0.000833        0.000000       -0.001389       -0.000833        0.000000       -0.000833       -0.000833        0.000000       -0.000278       -0.000833        0.000000        0.000278       -0.000833        0.000000        0.000833       -0.000833        0.000000        0.001389       -0.000833        0.000000        0.001944       -0.000833        0.000000        0.002500       -0.000833        0.000000
      -0.002500       -0.000278        0.000000       -0.001944       -0.000278        0.000000       -0.001389       -0.000278        0.000000       -0.000833       -0.000278        0.000000       -0.000278       -0.000278        0.000000        0.000278       -0.000278        0.000000        0.000833       -0.000278        0.000000        0.001389       -0.000278        0.000000        0.001944       -0.000278        0.000000        0.002500       -0.000278        0.000000
      -0.002500        0.000278        0.000000       -0.001944        0.000278        0.000000       -0.001389        0.000278        0.000000       -0.000833        0.000278        0.000000       -0.000278        0.000278        0.000000        0.000278        0.000278        0.000000        0.000833        0.000278        0.000000        0.001389        0.000278        0.000000        0.001944        0.000278        0.000000        0.002500        0.000278        0.000000
      -0.002500        0.000833        0.000000       -0.001944        0.000833        0.000000       -0.001389        0.000833        0.000000       -0.000833        0.000833        0.000000       -0.000278        0.000833        0.000000        0.000278        0.000833        0.000000        0.000833        0.000833        0.000000        0.001389        0.000833        0.000000        0.001944        0.000833        0.000000        0.002500        0.000833        0.000000
      -0.002500        0.001389        0.000000       -0.001944        0.001389        0.000000       -0.001389        0.001389        0.000000       -0.000833        0.001389        0.000000       -0.000278        0.001389        0.000000        0.000278        0.001389        0.000000        0.000833        0.001389        0.000000        0.001389        0.001389        0.000000        0.001944        0.001389        0.000000        0.002500        0.001389        0.000000
      -0.002500        0.001944        0.000000       -0.001944        0.001944        0.000000       -0.001389        0.001944        0.000000       -0.000833        0.001944        0.000000       -0.000278        0.001944        0.000000        0.000278        0.001944        0.000000        0.000833        0.001944        0.000000        0.001389        0.001944        0.000000        0.001944        0.001944        0.000000        0.002500        0.001944        0.000000
      -0.002500        0.002500        0.000000       -0.001944        0.002500        0.000000       -0.001389        0.002500        0.000000       -0.000833        0.002500        0.000000       -0.000278        0.002500        0.000000        0.000278        0.002500        0.000000        0.000833        0.002500        0.000000        0.001389        0.002500        0.000000        0.001944        0.002500        0.000000        0.002500        0.002500        0.000000
</Points>
<CellData Scalars="Température, U, V">
<DataArray type="Float32" Name="Temp, K"/>
     293.000000      293.000000      293.000000      293.000000      293.000000      293.000000      293.000000      293.000000      293.000000
     293.000000      293.000000      293.000000      293.000000      293.000000      293.000000      293.000000      293.000000      293.000000
     293.000000      293.000000      293.000000      293.000000      293.000000      293.000000      293.000000      293.000000      293.000000
     293.000000      293.000000      293.000000      293.000000      293.000000      293.000000      293.000000      293.000000      293.000000
     293.000000      293.000000      293.000000      293.000000      293.000000      293.000000      293.000000      293.000000      293.000000
     293.000000      293.000000      293.000000      293.000000      293.000000      293.000000      293.000000      293.000000      293.000000
     293.000000      293.000000      293.000000      293.000000      293.000000      293.000000      293.000000      293.000000      293.000000
     293.000000      293.000000      293.000000      293.000000      293.000000      293.000000      293.000000      293.000000      293.000000
     293.000000      293.000000      293.000000      293.000000      293.000000      293.000000      293.000000      293.000000      293.000000
<DataArray type="Float32" Name="Vitesse u, m/s"/>
       0.000171        0.000150        0.000112        0.000059       -0.000000       -0.000059       -0.000112       -0.000150       -0.000171
       0.000492        0.000433        0.000321        0.000171       -0.000000       -0.000171       -0.000321       -0.000433       -0.000492
       0.000754        0.000663        0.000492        0.000262       -0.000000       -0.000262       -0.000492       -0.000663       -0.000754
       0.000925        0.000814        0.000604        0.000321       -0.000000       -0.000321       -0.000604       -0.000814       -0.000925
       0.000985        0.000866        0.000643        0.000342       -0.000000       -0.000342       -0.000643       -0.000866       -0.000985
       0.000925        0.000814        0.000604        0.000321       -0.000000       -0.000321       -0.000604       -0.000814       -0.000925
       0.000754        0.000663        0.000492        0.000262       -0.000000       -0.000262       -0.000492       -0.000663       -0.000754
       0.000492        0.000433        0.000321        0.000171       -0.000000       -0.000171       -0.000321       -0.000433       -0.000492
       0.000171        0.000150        0.000112        0.000059       -0.000000       -0.000059       -0.000112       -0.000150       -0.000171
<DataArray type="Float32" Name="Vitesse v, m/s"/>
      -0.000171       -0.000492       -0.000754       -0.000925       -0.000985       -0.000925       -0.000754       -0.000492       -0.000171
      -0.000150       -0.000433       -0.000663       -0.000814       -0.000866       -0.000814       -0.000663       -0.000433       -0.000150
      -0.000112       -0.000321       -0.000492       -0.000604       -0.000643       -0.000604       -0.000492       -0.000321       -0.000112
      -0.000059       -0.000171       -0.000262       -0.000321       -0.000342       -0.000321       -0.000262       -0.000171       -0.000059
       0.000000        0.000000        0.000000        0.000000        0.000000        0.000000        0.000000        0.000000        0.000000
       0.000059        0.000171        0.000262        0.000321        0.000342        0.000321        0.000262        0.000171        0.000059
       0.000112        0.000321        0.000492        0.000604        0.000643        0.000604        0.000492        0.000321        0.000112
       0.000150        0.000433        0.000663        0.000814        0.000866        0.000814        0.000663        0.000433        0.000150
       0.000171        0.000492        0.000754        0.000925        0.000985        0.000925        0.000754        0.000492        0.000171
</CellData>
</Piece>
</StructuredGrid>
</VTKFile>
