<?xml version="1.0"?>
<VTKFile type="StructuredGrid">
<StructuredGrid WholeExtent="     0    99     0    99     0     0">
<Piece Extent="     0    99     0    99     0     0">
<Points>
<DataArray type="Float32" NumberOfComponents="3"/>
      -0.002500       -0.002500        0.000000       -0.002449       -0.002500        0.000000       -0.002399       -0.002500        0.000000       -0.002348       -0.002500        0.000000       -0.002298       -0.002500        0.000000       -0.002247       -0.002500        0.000000       -0.002197       -0.002500        0.000000       -0.002146       -0.002500        0.000000       -0.002096       -0.002500        0.000000       -0.002045       -0.002500        0.000000       -0.001995       -0.002500        0.000000       -0.001944       -0.002500        0.000000       -0.001894       -0.002500        0.000000       -0.001843       -0.002500        0.000000       -0.001793       -0.002500        0.000000       -0.001742       -0.002500        0.000000       -0.001692       -0.002500        0.000000       -0.001641       -0.002500        0.000000       -0.001591       -0.002500        0.000000       -0.001540       -0.002500        0.000000       -0.001490       -0.002500        0.000000       -0.001439       -0.002500        0.000000       -0.001389       -0.002500        0.000000       -0.001338       -0.002500        0.000000       -0.001288       -0.002500        0.000000       -0.001237       -0.002500        0.000000       -0.001187       -0.002500        0.000000       -0.001136       -0.002500        0.000000       -0.001086       -0.002500        0.000000       -0.001035       -0.002500        0.000000       -0.000985       -0.002500        0.000000       -0.000934       -0.002500        0.000000       -0.000884       -0.002500        0.000000       -0.000833       -0.002500        0.000000       -0.000783       -0.002500        0.000000       -0.000732       -0.002500        0.000000       -0.000682       -0.002500        0.000000       -0.000631       -0.002500        0.000000       -0.000581       -0.002500        0.000000       -0.000530       -0.002500        0.000000       -0.000480       -0.002500        0.000000       -0.000429       -0.002500        0.000000       -0.000379       -0.002500        0.000000       -0.000328       -0.002500        0.000000       -0.000278       -0.002500        0.000000       -0.000227       -0.002500        0.000000       -0.000177       -0.002500        0.000000       -0.000126       -0.002500        0.000000       -0.000076       -0.002500        0.000000       -0.000025       -0.002500        0.000000        0.000025       -0.002500        0.000000        0.000076       -0.002500        0.000000        0.000126       -0.002500        0.000000        0.000177       -0.002500        0.000000        0.000227       -0.002500        0.000000        0.000278       -0.002500        0.000000        0.000328       -0.002500        0.000000        0.000379       -0.002500        0.000000        0.000429       -0.002500        0.000000        0.000480       -0.002500        0.000000        0.000530       -0.002500        0.000000        0.000581       -0.002500        0.000000        0.000631       -0.002500        0.000000        0.000682       -0.002500        0.000000        0.000732       -0.002500        0.000000        0.000783       -0.002500        0.000000        0.000833       -0.002500        0.000000        0.000884       -0.002500        0.000000        0.000934       -0.002500        0.000000        0.000985       -0.002500        0.000000        0.001035       -0.002500        0.000000        0.001086       -0.002500        0.000000        0.001136       -0.002500        0.000000        0.001187       -0.002500        0.000000        0.001237       -0.002500        0.000000        0.001288       -0.002500        0.000000        0.001338       -0.002500        0.000000        0.001389       -0.002500        0.000000        0.001439       -0.002500        0.000000        0.001490       -0.002500        0.000000        0.001540       -0.002500        0.000000        0.001591       -0.002500        0.000000        0.001641       -0.002500        0.000000        0.001692       -0.002500        0.000000        0.001742       -0.002500        0.000000        0.001793       -0.002500        0.000000        0.001843       -0.002500        0.000000        0.001894       -0.002500        0.000000        0.001944       -0.002500        0.000000        0.001995       -0.002500        0.000000        0.002045       -0.002500        0.000000        0.002096       -0.002500        0.000000        0.002146       -0.002500        0.000000        0.002197       -0.002500        0.000000        0.002247       -0.002500        0.000000        0.002298       -0.002500        0.000000        0.002348       -0.002500        0.000000        0.002399       -0.002500        0.000000        0.002449       -0.002500        0.000000        0.002500       -0.002500        0.000000
      -0.002500       -0.002449        0.000000       -0.002449       -0.002449        0.000000       -0.002399       -0.002449        0.000000       -0.002348       -0.002449        0.000000       -0.002298       -0.002449        0.000000       -0.002247       -0.002449        0.000000       -0.002197       -0.002449        0.000000       -0.002146       -0.002449        0.000000       -0.002096       -0.002449        0.000000       -0.002045       -0.002449        0.000000       -0.001995       -0.002449        0.000000       -0.001944       -0.002449        0.000000       -0.001894       -0.002449        0.000000       -0.001843       -0.002449        0.000000       -0.001793       -0.002449        0.000000       -0.001742       -0.002449        0.000000       -0.001692       -0.002449        0.000000       -0.001641       -0.002449        0.000000       -0.001591       -0.002449        0.000000       -0.001540       -0.002449        0.000000       -0.001490       -0.002449        0.000000       -0.001439       -0.002449        0.000000       -0.001389       -0.002449        0.000000       -0.001338       -0.002449        0.000000       -0.001288       -0.002449        0.000000       -0.001237       -0.002449        0.000000       -0.001187       -0.002449        0.000000       -0.001136       -0.002449        0.000000       -0.001086       -0.002449        0.000000       -0.001035       -0.002449        0.000000       -0.000985       -0.002449        0.000000       -0.000934       -0.002449        0.000000       -0.000884       -0.002449        0.000000       -0.000833       -0.002449        0.000000       -0.000783       -0.002449        0.000000       -0.000732       -0.002449        0.000000       -0.000682       -0.002449        0.000000       -0.000631       -0.002449        0.000000       -0.000581       -0.002449        0.000000       -0.000530       -0.002449        0.000000       -0.000480       -0.002449        0.000000       -0.000429       -0.002449        0.000000       -0.000379       -0.002449        0.000000       -0.000328       -0.002449        0.000000       -0.000278       -0.002449        0.000000       -0.000227       -0.002449        0.000000       -0.000177       -0.002449        0.000000       -0.000126       -0.002449        0.000000       -0.000076       -0.002449        0.000000       -0.000025       -0.002449        0.000000        0.000025       -0.002449        0.000000        0.000076       -0.002449        0.000000        0.000126       -0.002449        0.000000        0.000177       -0.002449        0.000000        0.000227       -0.002449        0.000000        0.000278       -0.002449        0.000000        0.000328       -0.002449        0.000000        0.000379       -0.002449        0.000000        0.000429       -0.002449        0.000000        0.000480       -0.002449        0.000000        0.000530       -0.002449        0.000000        0.000581       -0.002449        0.000000        0.000631       -0.002449        0.000000        0.000682       -0.002449        0.000000        0.000732       -0.002449        0.000000        0.000783       -0.002449        0.000000        0.000833       -0.002449        0.000000        0.000884       -0.002449        0.000000        0.000934       -0.002449        0.000000        0.000985       -0.002449        0.000000        0.001035       -0.002449        0.000000        0.001086       -0.002449        0.000000        0.001136       -0.002449        0.000000        0.001187       -0.002449        0.000000        0.001237       -0.002449        0.000000        0.001288       -0.002449        0.000000        0.001338       -0.002449        0.000000        0.001389       -0.002449        0.000000        0.001439       -0.002449        0.000000        0.001490       -0.002449        0.000000        0.001540       -0.002449        0.000000        0.001591       -0.002449        0.000000        0.001641       -0.002449        0.000000        0.001692       -0.002449        0.000000        0.001742       -0.002449        0.000000        0.001793       -0.002449        0.000000        0.001843       -0.002449        0.000000        0.001894       -0.002449        0.000000        0.001944       -0.002449        0.000000        0.001995       -0.002449        0.000000        0.002045       -0.002449        0.000000        0.002096       -0.002449        0.000000        0.002146       -0.002449        0.000000        0.002197       -0.002449        0.000000        0.002247       -0.002449        0.000000        0.002298       -0.002449        0.000000        0.002348       -0.002449        0.000000        0.002399       -0.002449        0.000000        0.002449       -0.002449        0.000000        0.002500       -0.002449        0.000000
[...]
<CellData Scalars="Temprature, U, V">
<DataArray type="Float32" Name="Temp, K"/>
     292.941395      293.750382      293.539463      291.632893      288.434558      284.422895      279.429875      273.426981      266.898888      260.212084      253.418316      246.647394      240.159270      234.095600      228.456921      223.236653      218.451271      214.100628      210.158395      206.579837      203.316499      200.332164      197.622233      195.179313      192.988072      191.018662      189.226053      187.590244      186.055588      184.236091      180.625882      169.176332      131.844500       14.473039     -314.759628    -1157.035692    -3127.974072    -7353.595884   -15697.745602   -30923.476156   -56592.313644   -96642.271351  -154398.092709  -231242.212380  -325121.895149  -429629.733434  -534053.636267  -624864.271271  -688459.665542  -714503.142136  -698521.828866  -643243.230594  -557835.560920  -455368.291902  -349692.731210  -252403.321394  -171062.324376  -108719.368888   -64655.709767   -35893.287088   -18535.355863    -8844.218631    -3850.845427    -1478.793974     -445.417634      -33.747909      115.593109      164.477119      179.245866      183.903628      185.867316      187.468316      189.079590      190.850295      192.835117      195.083842      197.529069      199.878785      202.212577      205.863860      211.741338      216.082216      214.068678      214.401548      233.008267      252.665996      233.710067      208.653330      258.235967      320.253875      256.378557      184.138058      300.850513      396.526035      239.228481      163.166734      386.256203      419.133597      -97.824369
     292.327574      294.057510      295.406661      293.978993      289.307195      282.553342      274.049311      263.402772      251.066330      237.998215      224.616978      211.065694      197.750721      185.104412      173.279195      162.271171      152.088912      142.747681      134.234206      126.500536      119.463176      113.019667      107.107395      101.710109       96.814889       92.413445       88.413577       84.791186       81.438235       77.737837       71.652946       53.018178       -7.339561     -201.366392     -753.148237    -2187.754375    -5580.932746   -12924.268986   -27535.167928   -54358.393964   -99819.674782  -171047.234018  -274144.893240  -411725.024732  -580242.367371  -768230.898415  -956415.304480 -1120344.862709 -1235396.581301 -1282719.651943 -1254215.349607 -1154743.171372 -1000876.510644  -816293.636912  -626054.567863  -451135.563697  -305110.510715  -193419.281162  -114704.453471   -63503.528604   -32728.395250   -15636.569475    -6885.533497    -2762.991311     -985.203000     -285.110821      -35.343982       45.065202       69.191862       77.171272       80.962825       84.429744       88.016566       91.980846       96.407348      101.283301      106.348796      111.454364      117.759913      127.153410      137.193456      140.132641      139.299461      158.333191      196.924272      197.248405      149.487248      175.499737      299.915546      294.238523      129.299615      184.685239      447.096486      356.377441       50.760606      256.515089      609.921151      209.421493     -454.562801
     291.655250      293.030430      295.731325      297.753745      296.445918      291.797245      285.269714      276.937272      266.252352      253.834240      240.731623      227.302115      213.673801      200.292229      187.604362      175.759601      164.746816      154.552267      145.175006      136.625312      128.897513      121.918738      115.546170      109.673793      104.258759       99.328425       94.858395       90.846118       87.188198       83.904477       81.532961       81.535230       90.960258      129.126243      253.042528      589.018102     1417.007404     3262.609921     7023.600321    14069.068814    26213.418388    45526.630442    73820.552409   111977.850357   159124.726698   212113.121507   265471.293061   312181.279666   345088.156583   358749.891649   350725.882120   322446.801668   278702.716860   226362.674912   172642.693600   123513.148152    82812.246163    51957.073335    30443.830931    16626.284309     8451.252290     3994.062443     1761.681802      736.934666      309.218884      149.345419       96.667739       82.888992       81.475045       83.700358       86.797978       90.417008       94.403695       98.810653      103.641518      108.730107      114.053344      120.567091      129.602675      138.922081      142.194026      142.690039      161.512573      199.011065      200.587649      151.339062      171.565853      305.294721      316.495817      125.589492      147.013981      466.164505      427.835444       18.693530      156.557291      674.084451      402.802666     -386.308238     -562.706266
     291.234517      292.072498      294.307426      298.132065      300.774147      299.462082      294.852715      288.606103      280.417181      269.647062      257.132202      243.977920      230.469960      216.739565      203.269602      190.515320      178.635791      167.621973      157.416245      147.970307      139.311179      131.514750      124.558304      118.280636      112.506942      107.137098      102.184891       97.671498       93.525471       90.151954       88.871754       98.490141      147.479777      329.118069      888.717377     2413.923787     6153.515592    14479.154455    31425.342852    63116.290263   117676.233123   204279.945136   331015.943342   501703.258719   712403.965045   948981.277164  1187095.237301  1395518.425543  1542538.784552  1603707.540589  1568389.942920  1442720.811641  1247941.652462  1014537.430439   774627.239163   554944.545404   372563.132729   234030.810867   137272.066233    75010.596511    38074.784451    17891.882819     7759.650836     3103.133314     1156.425339      421.692211      175.999203      105.585467       90.255776       89.902920       93.148282       97.095096      101.545183      106.372453      111.511705      117.023474      123.654010      132.277946      140.947677      144.731568      146.746515      165.150221      200.714991      203.751125      155.247337      168.952796      307.413659      339.622497      130.869136      104.343686      469.312978      517.436372       13.681693       21.049602      699.567323      626.454817     -312.391425     -678.954944     -401.309783
     290.910458      291.707603      292.996476      296.253621      301.317361      304.451794      303.023474      298.512189      292.595431      284.505714      273.610384      260.989544      247.761762      234.144646      220.292127      206.709963      193.851819      181.914829      170.921673      160.750620      151.240663      142.392930      134.382501      127.308393      121.054720      115.379955      110.130311      105.240335      100.765881       96.722719       92.704515       87.417314       74.319615       33.895342      -93.290116     -448.490341    -1348.720617    -3409.947972    -7707.031327   -15909.168189   -30275.146031   -53421.650890   -87715.946018  -134394.643550  -192527.627246  -258284.945046  -324867.208441  -383433.399035  -424917.286490  -442315.639760  -432517.134387  -397277.881758  -342661.950285  -277379.615553  -210553.366644  -149703.693411   -99562.489890   -61816.909575   -35738.562015   -19174.032401    -9501.228752    -4312.431311    -1763.614753     -621.400423     -157.552532       11.874251       68.078170       85.567486       92.084144       96.177744      100.245889      104.621564      109.444217      114.641286      120.291608      126.955514      135.167267      143.319390      147.763917      151.385971      169.234459      202.196926      206.629195      161.016614      168.534372      306.595431      361.091798      145.610121       62.366013      452.590417      615.372591       48.402933     -136.851811      661.696185      878.206180     -175.678924     -830.109389     -466.277561     -251.211262
     290.463601      291.521208      292.682582      294.432716      298.954171      305.323345      308.761149      307.142401      302.826153      297.269847      289.222714      278.174097      265.440725      252.109454      238.354207      224.371738      210.655136      197.629849      185.577210      174.626292      164.604897      155.154316      146.145856      137.814744      130.437202      124.030386      118.381590      113.229406      108.585682      104.208980       99.390787       87.457553       43.111425     -121.037030     -651.956770    -2162.431825    -5999.150195   -14790.414666   -33107.039106   -68016.819481  -129077.781094  -227286.506168  -372596.756782  -570112.198932  -815824.159824 -1093502.892697 -1374506.365991 -1621648.142297 -1796856.598492 -1870578.015787 -1829797.601933 -1681720.452570 -1451752.768316 -1176451.992025  -894216.624266  -636818.503957  -424289.767265  -263981.690535  -153000.835179   -82355.602957   -40998.772313   -18767.007883    -7827.872325    -2924.562452     -936.974956     -215.306547       15.844438       80.861068       97.828609      103.710714      108.087564      112.837235      118.013036      123.743103      130.392103      138.259895      146.090062      151.326479      156.548417      173.750921      203.662576      209.249473      168.344263      170.904710      303.649597      378.680762      168.698070       27.219762      415.736012      708.596400      129.428069     -294.681929      542.415755     1131.877149       59.875710     -989.480990     -624.276317     -142.584605     -293.420900
     289.925170      291.012514      292.769344      294.102695      296.419294      302.507845      310.162387      313.674325      311.853017      307.853127      302.659198      294.593719      283.380253      270.525800      257.046089      243.125634      229.032920      215.180817      201.893867      189.577703      178.611796      168.873915      159.766971      150.873338      142.344280      134.607897      127.869854      122.031970      116.820509      111.992442      107.671489      104.701466      108.466625      137.054226      247.930606      586.937513     1489.523423     3628.491165     8204.412070    17116.829133    32987.249258    58903.552358    97737.595283   151089.548567   218054.058623   294291.440960   371906.648962   440503.841054   489342.509135   510044.811151   498873.840512   457852.433213   394149.453644   318076.377576   240406.464168   169972.646044   112244.891431    69093.858955    39548.213210    20988.951809    10297.897428     4660.898759     1951.958062      773.209930      314.256574      157.807933      113.410143      105.454373      107.348122      111.599208      116.437385      121.712631      127.487180      134.110046      141.746094      149.459039      155.553754      162.243587      178.704482      205.333206      211.756142      176.882154      176.294126      299.685634      390.898488      197.650744        4.192361      362.651277      783.532568      254.351889     -424.378496      337.482654     1344.769658      412.715303    -1107.205461     -898.905053      -63.674234     -164.845277     -416.811932
     289.482875      290.283645      292.308705      294.611576      295.911364      299.042276      307.015165      315.818712      319.172697      317.213659      313.654673      308.790733      300.652129      289.284505      276.294208      262.591466      248.469366      234.334106      220.421285      206.787390      193.930818      182.661459      173.144202      164.625526      156.268160      147.923393      139.984618      132.884365      126.562571      120.864936      115.752783      115.328435      139.669415      264.308193      718.840907     2098.722999     5757.820515    14413.095553    32897.692481    68826.270586   132685.446825   236762.698286   392454.868072   606024.370784   873742.595228  1178223.425280  1488002.932502  1761737.066528  1956759.290147  2039726.178527  1995776.468933  1832797.427393  1579166.426604  1275797.523117   965560.447006   683724.684999   452251.773156   278848.614208   159840.361111    84895.272785    41603.396286    18716.155865     7688.409109     2877.767008      997.647995      350.796795      161.845644      119.282446      115.747420      120.222540      125.830884      131.816746      138.512224      146.046753      153.787780      160.673177      168.524936      184.086706      207.386168      214.351324      186.294772      184.577127      295.873406      397.222322      229.209816       -3.384913      300.679897      829.322389      411.220576     -498.851434       61.484269     1467.483214      873.823883    -1115.579902    -1292.838047      -70.742133       58.659570     -459.816296     -409.878649
     289.180918      289.794020      291.305333      294.397015      296.959265      298.080380      302.439231      312.557849      322.251177      325.259710      323.305335      320.291403      315.688986      307.438758      295.961654      282.817821      268.761203      254.349087      240.287479      226.557446      212.648897      198.935188      186.746066      176.867696      168.692529      161.020030      153.234685      145.505972      138.299216      131.955744      126.426228      121.140839      112.033045       83.591485      -16.093774     -327.037945    -1181.503019    -3266.485787    -7836.264877   -16912.893596   -33338.845475   -60519.395791  -101699.032540  -158791.516357  -230997.463089  -313722.620248  -398391.133612  -473571.816896  -527362.699812  -550408.513768  -538499.505073  -493818.661818  -424289.169869  -341324.833943  -256825.568473  -180493.045778  -118255.441650   -72049.468778   -40684.672376   -21193.358161   -10113.429521    -4367.433958    -1662.262598     -514.584724      -80.436743       64.387208      107.262701      119.830044      125.713731      130.984031      136.909146      143.664000      151.234770      159.091336      166.605305      175.224687      189.733752      209.875259      217.238359      196.320569      195.369801      293.233569      398.093657      260.090709        5.298378      238.937194      840.452610      580.756963     -499.270487     -252.338800     1457.860021     1400.453647     -945.333059    -1768.535466     -242.241015      369.687768     -411.952261     -563.906725     -268.190403
     288.851875      289.647599      290.592468      293.089398      297.290782      299.685044      300.642721      306.786782      319.178873      329.404949      331.970566      330.227876      327.822796      323.373904      314.993975      303.511142      290.220905      275.594675      260.653229      246.747047      233.669811      219.975871      205.416581      191.669088      180.430580      171.726315      164.365041      157.257863      150.252181      143.750115      138.306272      131.987449      110.534689       13.531886     -357.282330    -1542.398452    -4814.945604   -12802.263848   -30284.980712   -64936.534252  -127508.496785  -230819.943940  -387030.874807  -603224.172481  -876242.894041 -1188672.593651 -1508192.911486 -1791827.843458 -1994882.238752 -2082198.684437 -2037923.478240 -1870117.017502 -1608408.580701 -1295597.930427  -976440.267687  -687561.639496  -451499.709387  -275817.437533  -156246.912368   -81728.680069   -39240.974167   -17143.285471    -6714.057501    -2283.812821     -611.079325      -60.519750       93.028692      128.795549      137.486873      142.885073      149.278810      156.722947      164.637451      172.591231      181.685406      195.207496      212.727988      220.647144      206.865637      208.192853      292.506619      394.698749      287.649142       28.634881      186.249973      817.894080      740.780577     -420.483876     -558.352052     1295.197500     1919.946438     -549.625890    -2240.237001     -650.297700      705.865457     -191.802217     -784.978959     -295.723657     -197.444058
     288.364895      289.435003      290.590570      291.899746      295.782504      300.931014      302.652872      303.718160      312.272561      326.871982      337.228928      339.374525      338.097320      336.314954      331.856641      323.334061      312.049350      298.727842      283.246555      267.237106      253.272108      241.381161      228.985902      214.542989      199.494204      186.376178      176.250141      168.381624      161.529489      154.904375      148.332929      142.051001      138.670850      150.255076      220.508978      474.911222     1222.139672     3119.803391     7396.452243    16069.717141    32025.190879    58776.917923    99745.739394   157051.079466   230059.292831   314214.091393   400787.431320   478006.481339   533520.259325   557554.536381   545665.250600   500059.069008   428933.665237   344119.058003   257927.119277   180343.235935   117396.893731    70967.605348    39712.330731    20492.316568     9711.418863     4216.147380     1687.795955      649.595884      276.842218      164.968939      141.029138      141.699292      147.695495      154.739435      162.219234      170.043810      178.172979      187.546113      200.369219      216.120609      225.027627      218.109674      222.620075      294.087329      388.609506      310.286764       63.264665      149.358702      768.461406      871.375623     -272.599220     -809.219395      989.408191     2345.067871       72.941508    -2585.023269    -1323.051205      944.016023      265.404361     -995.751412     -486.433288      -28.094049     -312.578518
     287.828809      288.828197      290.695123      291.894578      293.838223      299.528231      305.163384      305.769683      307.517799      319.059458      335.587431      345.691930      347.566118      347.048284      345.863176      341.139038      332.404491      321.657152      308.694577      292.156521      274.157974      259.203388      248.516069      238.715586      226.378532      211.716512      197.392005      185.471456      176.059089      168.064806      160.140430      152.326721      153.278032      207.484573      474.562456     1414.190921     4149.871001    11065.465278    26595.486094    57987.599183   115562.966551   211828.174835   358890.956458   564158.116439   825209.409211  1125700.264234  1434533.533224  1709884.340751  1907931.577383  1993988.038612  1952234.136068  1790370.558865  1537348.891711  1235074.356813   927296.485861   649649.751164   423824.593032   256790.542412   143997.041433    74398.724017    35214.135156    15161.327342     5895.499187     2071.511967      687.697365      263.958858      163.751208      152.640512      159.498239      168.004742      176.195966      184.572679      194.188820      206.607469      221.298965      231.402768      230.527079      238.264389      297.942095      381.377415      327.546325      105.048186      131.874110      702.747927      959.144169      -78.222016     -967.483577      581.227419     2596.822658      866.770602    -2673.629103    -2212.164413      923.585287      956.479075    -1049.652575     -894.094432      111.743623     -170.532269     -456.737501