<?xml version="1.0"?>
<VTKFile type="StructuredGrid">
<StructuredGrid WholeExtent="     0    99     0    99     0     0">
<Piece Extent="     0    99     0    99     0     0">
<Points>
<DataArray type="Float32" NumberOfComponents="3"/>
      -0.002500       -0.002500        0.000000       -0.002449       -0.002500        0.000000       -0.002399       -0.002500        0.000000       -0.002348       -0.002500        0.000000       -0.002298       -0.002500        0.000000       -0.002247       -0.002500        0.000000       -0.002197       -0.002500        0.000000       -0.002146       -0.002500        0.000000       -0.002096       -0.002500        0.000000       -0.002045       -0.002500        0.000000       -0.001995       -0.002500        0.000000       -0.001944       -0.002500        0.000000       -0.001894       -0.002500        0.000000       -0.001843       -0.002500        0.000000       -0.001793       -0.002500        0.000000       -0.001742       -0.002500        0.000000       -0.001692       -0.002500        0.000000       -0.001641       -0.002500        0.000000       -0.001591       -0.002500        0.000000       -0.001540       -0.002500        0.000000       -0.001490       -0.002500        0.000000       -0.001439       -0.002500        0.000000       -0.001389       -0.002500        0.000000       -0.001338       -0.002500        0.000000       -0.001288       -0.002500        0.000000       -0.001237       -0.002500        0.000000       -0.001187       -0.002500        0.000000       -0.001136       -0.002500        0.000000       -0.001086       -0.002500        0.000000       -0.001035       -0.002500        0.000000       -0.000985       -0.002500        0.000000       -0.000934       -0.002500        0.000000       -0.000884       -0.002500        0.000000       -0.000833       -0.002500        0.000000       -0.000783       -0.002500        0.000000       -0.000732       -0.002500        0.000000       -0.000682       -0.002500        0.000000       -0.000631       -0.002500        0.000000       -0.000581       -0.002500        0.000000       -0.000530       -0.002500        0.000000       -0.000480       -0.002500        0.000000       -0.000429       -0.002500        0.000000       -0.000379       -0.002500        0.000000       -0.000328       -0.002500        0.000000       -0.000278       -0.002500        0.000000       -0.000227       -0.002500        0.000000       -0.000177       -0.002500        0.000000       -0.000126       -0.002500        0.000000       -0.000076       -0.002500        0.000000       -0.000025       -0.002500        0.000000        0.000025       -0.002500        0.000000        0.000076       -0.002500        0.000000        0.000126       -0.002500        0.000000        0.000177       -0.002500        0.000000        0.000227       -0.002500        0.000000        0.000278       -0.002500        0.000000        0.000328       -0.002500        0.000000        0.000379       -0.002500        0.000000        0.000429       -0.002500        0.000000        0.000480       -0.002500        0.000000        0.000530       -0.002500        0.000000        0.000581       -0.002500        0.000000        0.000631       -0.002500        0.000000        0.000682       -0.002500        0.000000        0.000732       -0.002500        0.000000        0.000783       -0.002500        0.000000        0.000833       -0.002500        0.000000        0.000884       -0.002500        0.000000        0.000934       -0.002500        0.000000        0.000985       -0.002500        0.000000        0.001035       -0.002500        0.000000        0.001086       -0.002500        0.000000        0.001136       -0.002500        0.000000        0.001187       -0.002500        0.000000        0.001237       -0.002500        0.000000        0.001288       -0.002500        0.000000        0.001338       -0.002500        0.000000        0.001389       -0.002500        0.000000        0.001439       -0.002500        0.000000        0.001490       -0.002500        0.000000        0.001540       -0.002500        0.000000        0.001591       -0.002500        0.000000        0.001641       -0.002500        0.000000        0.001692       -0.002500        0.000000        0.001742       -0.002500        0.000000        0.001793       -0.002500        0.000000        0.001843       -0.002500        0.000000        0.001894       -0.002500        0.000000        0.001944       -0.002500        0.000000        0.001995       -0.002500        0.000000        0.002045       -0.002500        0.000000        0.002096       -0.002500        0.000000        0.002146       -0.002500        0.000000        0.002197       -0.002500        0.000000        0.002247       -0.002500        0.000000        0.002298       -0.002500        0.000000        0.002348       -0.002500        0.000000        0.002399       -0.002500        0.000000        0.002449       -0.002500        0.000000        0.002500       -0.002500        0.000000
      -0.002500       -0.002449        0.000000       -0.002449       -0.002449        0.000000       -0.002399       -0.002449        0.000000       -0.002348       -0.002449        0.000000       -0.002298       -0.002449        0.000000       -0.002247       -0.002449        0.000000       -0.002197       -0.002449        0.000000       -0.002146       -0.002449        0.000000       -0.002096       -0.002449        0.000000       -0.002045       -0.002449        0.000000       -0.001995       -0.002449        0.000000       -0.001944       -0.002449        0.000000       -0.001894       -0.002449        0.000000       -0.001843       -0.002449        0.000000       -0.001793       -0.002449        0.000000       -0.001742       -0.002449        0.000000       -0.001692       -0.002449        0.000000       -0.001641       -0.002449        0.000000       -0.001591       -0.002449        0.000000       -0.001540       -0.002449        0.000000       -0.001490       -0.002449        0.000000       -0.001439       -0.002449        0.000000       -0.001389       -0.002449        0.000000       -0.001338       -0.002449        0.000000       -0.001288       -0.002449        0.000000       -0.001237       -0.002449        0.000000       -0.001187       -0.002449        0.000000       -0.001136       -0.002449        0.000000       -0.001086       -0.002449        0.000000       -0.001035       -0.002449        0.000000       -0.000985       -0.002449        0.000000       -0.000934       -0.002449        0.000000       -0.000884       -0.002449        0.000000       -0.000833       -0.002449        0.000000       -0.000783       -0.002449        0.000000       -0.000732       -0.002449        0.000000       -0.000682       -0.002449        0.000000       -0.000631       -0.002449        0.000000       -0.000581       -0.002449        0.000000       -0.000530       -0.002449        0.000000       -0.000480       -0.002449        0.000000       -0.000429       -0.002449        0.000000       -0.000379       -0.002449        0.000000       -0.000328       -0.002449        0.000000       -0.000278       -0.002449        0.000000       -0.000227       -0.002449        0.000000       -0.000177       -0.002449        0.000000       -0.000126       -0.002449        0.000000       -0.000076       -0.002449        0.000000       -0.000025       -0.002449        0.000000        0.000025       -0.002449        0.000000        0.000076       -0.002449        0.000000        0.000126       -0.002449        0.000000        0.000177       -0.002449        0.000000        0.000227       -0.002449        0.000000        0.000278       -0.002449        0.000000        0.000328       -0.002449        0.000000        0.000379       -0.002449        0.000000        0.000429       -0.002449        0.000000        0.000480       -0.002449        0.000000        0.000530       -0.002449        0.000000        0.000581       -0.002449        0.000000        0.000631       -0.002449        0.000000        0.000682       -0.002449        0.000000        0.000732       -0.002449        0.000000        0.000783       -0.002449        0.000000        0.000833       -0.002449        0.000000        0.000884       -0.002449        0.000000        0.000934       -0.002449        0.000000        0.000985       -0.002449        0.000000        0.001035       -0.002449        0.000000        0.001086       -0.002449        0.000000        0.001136       -0.002449        0.000000        0.001187       -0.002449        0.000000        0.001237       -0.002449        0.000000        0.001288       -0.002449        0.000000        0.001338       -0.002449        0.000000        0.001389       -0.002449        0.000000        0.001439       -0.002449        0.000000        0.001490       -0.002449        0.000000        0.001540       -0.002449        0.000000        0.001591       -0.002449        0.000000        0.001641       -0.002449        0.000000        0.001692       -0.002449        0.000000        0.001742       -0.002449        0.000000        0.001793       -0.002449        0.000000        0.001843       -0.002449        0.000000        0.001894       -0.002449        0.000000        0.001944       -0.002449        0.000000        0.001995       -0.002449        0.000000        0.002045       -0.002449        0.000000        0.002096       -0.002449        0.000000        0.002146       -0.002449        0.000000        0.002197       -0.002449        0.000000        0.002247       -0.002449        0.000000        0.002298       -0.002449        0.000000        0.002348       -0.002449        0.000000        0.002399       -0.002449        0.000000        0.002449       -0.002449        0.000000        0.002500       -0.002449        0.000000
[...]
<CellData Scalars="Temprature, U, V">
<DataArray type="Float32" Name="Temp, K"/>
     292.786078      294.543755      295.711020      288.902164      269.663576      257.946991      266.641288      240.839681      164.347484      187.050883      322.113242      239.362601      -36.312680      112.522283      498.855147      142.801434        8.456063     1392.979524     -344.035450    -7827.932214    -2762.327232    31274.387812    47586.479253   -36683.555135  -189145.777608  -213618.414991    38542.063234   438189.321600   682145.505384   597596.017498   303087.583642    72566.828497     9214.028651 -1535991.389095 *************** *************** *************** *************** *************** *************** *************** *************** *************** *************** *************** *************** *************** *************** *************** *************** *************** *************** *************** *************** *************** *************** *************** *************** *************** *************** *************** *************** *************** *************** *************** -3699353.755135   -10289.304617    -6914.861884  -120107.682366  -119738.788633   -34643.578492    76729.160316    95187.082199   -27160.628602  -100407.529006    76005.844132   264681.043501    46092.924995  -334708.351877  -195152.456149   294193.779925   268064.869756  -206579.242497  -249243.101887   126920.126821   179051.905468   -72362.816101  -102744.447929    39887.001229    48260.048808   -19738.671121   -17924.754598     8919.319504     5822.166017    -2860.109999    -1155.794041     1257.711557      658.448443     -311.172794
     291.517144      293.603579      298.931608      300.192580      275.764826      232.722661      231.138875      247.281372      138.540675       10.142546      184.313329      376.466001      -21.540073     -363.558080      313.422789      538.897543     -715.716788      679.535459     4264.287321    -4623.672712   -22731.794829     1575.113261    86177.951807   102435.147844  -104195.063998  -422289.059369  -470827.577139   -32972.372007   649889.429483  1087787.853949  1062928.911271   771181.694656   642420.298831  -438954.458823 *************** *************** *************** *************** *************** *************** *************** *************** *************** *************** *************** *************** *************** *************** *************** *************** *************** *************** *************** *************** *************** *************** *************** *************** *************** *************** *************** *************** *************** *************** *************** -2550171.025894   301027.673232    42244.408120   -54467.296761    39279.747630   184454.895348   237506.754645    87631.150252  -107164.164448   -10253.395313   302014.815765   219711.182600  -345618.358927  -468107.088097   221346.702839   570025.648679   -72493.031989  -518509.848742   -13240.661698   383864.435157    30596.504832  -238885.867846   -15794.796395   126278.187678     1354.605375   -55826.717592     4110.635773    20869.273418    -2946.761265    -6107.406590     1777.655525     2115.974396     -300.557126     -736.379578
     291.039419      291.664037      293.480623      303.785608      314.270754      279.497314      210.847132      236.105306      307.137008      128.197173     -111.984341      205.002431      587.816522      -83.468659     -635.841886      692.444466      661.971381    -2929.317335      794.212494    14680.351379     1403.506960   -56405.477669   -56049.030498   115185.895815   306709.450061   156445.474953  -421744.213020  -984183.152090  -989654.311662  -402515.680283   334914.341513   735864.773017   676745.672397   152083.416897   562065.278183 12715648.452563 92729664.109232 *************** *************** *************** *************** *************** *************** *************** *************** *************** *************** *************** *************** *************** *************** *************** *************** *************** *************** *************** *************** *************** *************** *************** *************** *************** *************** 27870539.966251  2130806.646155  -339695.825827   -42216.348237   191461.065362   309418.190664   375572.185003   299405.916345    60422.644217  -143207.898938   -29372.301218   246210.309744   107723.847917  -426482.409796  -413563.642416   377080.095776   634574.131211  -212833.182154  -667166.747776    73146.198031   552918.960107   -10332.956165  -379689.891198     3511.806539   219854.597929   -11445.195328  -106352.324864    13893.059221    42814.020377    -9061.417356   -13642.008255     4550.826528     4201.023174    -1060.521908    -1131.041125     -324.806550
     290.461967      292.140645      292.209923      291.061905      309.337375      338.968013      284.623407      165.856318      240.775130      415.042907      119.133039     -318.446012      236.197410      937.600333     -292.296399    -1159.464103     2003.796678     1688.491109    -9120.485793    -4704.051048    35642.306614    36946.625788   -88918.764305  -199661.882400     6664.101759   495735.901653   712608.189502   192679.820836  -812649.456710 -1551110.252774 -1557171.759673 -1017416.467720  -622968.341249 -1424256.047407 -2056311.703548 23342507.542069 *************** *************** *************** *************** *************** *************** *************** *************** *************** *************** *************** *************** *************** *************** *************** *************** *************** *************** *************** *************** *************** *************** *************** *************** *************** *************** *************** 62181494.181871  1223715.529223 -1865524.275371  -294088.078343   199396.255540   197204.151138    25721.616501  -212295.512796  -319774.854227  -113140.529661   177688.153593    34758.910180  -427185.448990  -299099.781434   512388.111548   630337.996101  -383785.179044  -785190.144237   205263.072199   734790.893562   -87410.451998  -558639.140045    44638.080764   355053.846735   -37426.481455  -188243.598560    32995.638043    82471.524282   -21646.867870   -28632.737182    10877.966260     8530.891544    -3216.449687    -1996.208378      165.562827     -232.317953
     289.507710      290.764231      295.048820      293.568479      283.232984      314.995839      382.672932      292.056254       81.289988      243.030339      600.072027      113.595394     -670.102581      315.067965     1610.436152     -933.023784    -2688.128563     5360.092595     7004.722957   -21143.368601   -28973.542046    58990.119315   132062.213557   -52109.046971  -402238.119580  -371558.160593   343308.891401  1206202.596275  1341231.951882   539927.035561  -574545.164337 -1247794.528468 -1258533.454975  -634378.939159   682324.810448   550078.913019 *************** *************** *************** *************** *************** *************** *************** *************** *************** *************** *************** *************** *************** *************** *************** *************** *************** *************** *************** *************** *************** *************** *************** *************** *************** *************** *************** -3228071.240710  1403171.266110   427284.592640   -84853.019789  -264461.542568  -412327.323360  -525980.675910  -439989.234902   -95097.585836   216559.972871    60608.262683  -351279.823423  -169912.413749   583100.203294   550164.379806  -554650.164733  -843818.087342   374436.844171   903700.519330  -204860.552744  -764614.129563   114083.708054   534738.665607   -81298.772077  -311281.477823    65146.491518   149433.612975   -44297.209779   -56941.911016    23651.767173    17425.748941    -8364.338740    -3829.342522     1569.308753      -50.104566     -633.090290
     289.299862      289.179359      291.097137      301.543426      296.504710      264.161978      320.027908      458.713737      303.226849      -67.190462      237.101501      913.167804      117.782684    -1323.113141      509.104156     3198.868337    -2385.379209    -7538.728015    11317.629580    24808.518642   -34250.868636   -92433.706373    46413.429283   291773.462516   166346.341303  -485193.879145  -967223.096612  -459990.697763   875622.449959  1990583.981290  2089652.242420  1309598.515055   384265.084276   457394.579892  3509246.828114  6954946.051318 *************** *************** *************** *************** *************** *************** *************** *************** *************** *************** *************** *************** *************** *************** *************** *************** *************** *************** *************** *************** *************** *************** *************** *************** *************** *************** ***************  -126339.130353  5378334.343640  1138586.907953  -280626.387066  -454909.718383  -381810.289265  -148334.900526   215325.089234   416479.809537   150341.060045  -276600.739595   -97735.743396   562024.643421   416430.222748  -683592.601229  -824415.504915   557845.344691  1029653.066213  -358114.750606  -976612.243188   214705.099966   753799.928277  -146068.475096  -482502.058608   112856.744435   254850.775138   -80335.839402  -107353.515051    46583.277074    35225.968830   -19205.433404    -7858.940332     5134.186131      265.297830    -1400.723282     -256.050290
     288.895684      290.479289      288.223544      290.589966      315.275799      302.008522      224.034495      323.879236      586.300838      322.588996     -316.523681      201.216871     1462.980247      177.044878    -2691.913125      781.869713     7249.960111    -4384.963655   -20832.739330    16306.026605    68023.264884   -25936.363261  -206201.071805   -78283.653652   434090.473876   627598.480431  -138174.717155 -1334822.310740 -1692080.767495  -704323.244851   848631.760568  1851692.360532  1922694.777251  1325286.886626    66979.527451 -2466197.692460 -1510155.498973 45518877.059204 *************** *************** *************** *************** *************** *************** *************** *************** *************** *************** *************** *************** *************** *************** *************** *************** *************** *************** *************** *************** *************** *************** *************** ***************  8274786.899844 -3233088.392323 -1277676.141268  -128587.501461   120460.719375   247274.298547   457514.721563   654909.543756   587249.321009   129058.490463  -325614.328767  -130315.200424   472191.625945   284598.350747  -731938.071638  -730253.938719   720424.567768  1086744.971431  -531343.345652 -1166360.481672   343133.647894   997165.824106  -231346.015456  -702663.423639   175789.368013   409149.235580  -131084.093458  -191422.416438    83152.984135    69275.099721   -39493.312236   -16837.835261    13172.720834     1120.539907    -3508.965795       76.634268       48.611142
     287.495569      289.709289      293.643551      284.637782      287.929214      342.987493      310.611416      148.514814      325.327286      790.278694      369.501530     -728.706117       52.330556     2496.143244      522.419374    -5732.190813      441.157527    16875.671303    -3863.695421   -50379.398142     6100.724844   145851.114280    52071.479036  -335196.760594  -390687.366482   355070.662673  1171398.426384   813380.020557  -788397.688544 -2305577.044476 -2535498.884033 -1546236.601642  -225774.476235   512826.480181  -959454.472648 -7985189.279879 *************** 86340442.227863 *************** *************** *************** *************** *************** *************** *************** *************** *************** *************** *************** *************** *************** *************** *************** *************** *************** *************** *************** *************** *************** *************** *************** ***************  7042642.879855 *************** -3274624.224578   106989.403346   628993.719571   660161.166320   612113.058296   325777.713375  -197408.881769  -535397.795747  -211510.769637   403711.840549   221541.514493  -689173.250246  -594403.876160   823553.912060  1063602.987775  -697874.201071 -1304459.785203   488057.494165  1240364.349183  -332048.999778  -963072.806106   249442.702786   618421.241029  -193793.249972  -321897.465689   134565.059359   130493.881416   -73142.752024   -36230.362063    29265.556191     3854.229233    -8724.825241      748.554444     1050.548374     -778.843093
     287.244285      286.191802      292.357699      300.294663      274.174203      282.067338      395.235490      321.462307       21.153306      315.525329     1098.304323      517.379691    -1414.775999     -484.680658     4516.084002     1982.739476   -12188.342990    -3201.653674    36502.601368     8798.632774  -101957.169483   -49646.580767   242629.151647   259136.384321  -361774.075664  -862873.911290  -179973.987325  1324567.768146  1995938.811534   907576.697999 -1082983.788806 -2452147.330588 -2566543.341780 -1868791.130105  -847763.246714  1193457.232906  5166665.085945 -1222465.227697 *************** *************** *************** *************** *************** *************** *************** *************** *************** *************** *************** *************** *************** *************** *************** *************** *************** *************** *************** *************** *************** *************** *************** ***************  4900216.093575  2901919.779154   543822.209500    36617.439195    10566.581371  -110778.587495  -404918.179536  -727568.723763  -725758.151818  -164430.082090   469885.568762   253839.983521  -597657.228773  -474289.594867   841827.330349   972596.341109  -825197.150447 -1369246.972824   630335.564516  1453474.499898  -438015.597506 -1244246.357504   324840.975446   880288.723977  -260132.155911  -509319.322894   197080.994438   232665.932866  -122104.220812   -75389.679890    57726.069530    11925.140378   -20175.543810     1492.539456     3858.199002    -1848.848450     -669.509390
     287.940097      287.644057      283.207552      299.242501      312.156924      249.203319      274.169687      484.173300      333.516212     -166.577594      252.782461     1530.310928      994.206600    -2554.007567    -2176.661477     8329.581856     6827.421974   -24270.159299   -16963.796525    69017.951934    53045.741290  -167339.532060  -191868.123896   292246.705135   612321.260760  -103752.154897 -1258167.486050 -1188076.224049   550428.179257  2432129.149401  2799742.578575  1602882.386604   -13345.535214 -1111251.250601  -982522.492911  3071415.482231 15123105.136526 10453873.016417 *************** *************** *************** *************** *************** *************** *************** *************** *************** *************** *************** *************** *************** *************** *************** *************** *************** *************** *************** *************** *************** *************** *************** *************** 17674440.895755  7552732.836861   710406.518750  -655585.017529  -733439.499748  -825566.644886  -848835.438019  -521521.024994   171873.799457   680036.714388   308469.299119  -548792.054280  -422228.895595   783842.883354   851279.027249  -885725.398205 -1355901.511369   745971.913890  1608245.258003  -534906.239138 -1517707.987557   389656.016206  1180775.151435  -316291.443215  -757188.466506   259830.832318   389580.500505  -183173.524832  -147786.483147   101706.003846    32482.567216   -42269.577957      669.492231    10918.872161    -3916.038720    -1746.999467      669.430888
     286.225317      290.744549      287.436906      276.439698      315.679313      329.173271      199.453122      270.721826      612.792580      355.528147     -388.209191       -2.372771     2061.819519     2388.631298    -4334.529345    -6810.663788    14715.322432    19952.674781   -42845.203572   -53488.035217   108950.725331   155409.651955  -208622.251133  -443950.652998   176430.900232  1008643.943904   558235.963384 -1157201.787580 -2199843.610024 -1144958.684008  1191237.166648  2903577.624304  3060597.075754  2181346.384174  1169871.036483   -51993.587532 -3217111.580649 -7476317.608789 15844077.421736 *************** *************** *************** *************** *************** *************** *************** *************** *************** *************** *************** *************** *************** *************** *************** *************** *************** *************** *************** *************** *************** 72373609.104752 -2538224.803346 -5233495.162234 -1404705.859475  -189077.259201  -188271.566179  -270225.120835  -141343.849327   242483.667551   729851.914959   851183.764414   214669.799001  -632489.902732  -438642.442027   704928.799137   749266.576506  -872196.574755 -1281583.994588   812798.191424  1686715.907476  -606673.376841 -1751369.534961   430681.447663  1493969.235870  -345360.629532 -1057170.140173   304635.572252   609885.822586  -244860.638958  -269041.958467   159764.568824    77492.429684   -79320.036481    -6422.418650    26305.158979    -6741.541278    -5242.663817     2785.361533     -169.175059
     284.010532      285.503949      297.637420      283.347356      264.498814      350.833622      344.507103      119.489757      285.698422      745.051475      437.158582     -520.302282     -815.755493     2514.180419     5976.411868    -6648.317470   -17842.174765    23242.418655    49660.445511   -63436.446276  -129585.683302   133050.059373   334621.525230  -151527.454799  -764524.164902  -224386.382380  1190146.425143  1500284.692443  -214101.914733 -2366486.357011 -2859060.330207 -1461330.295380   423430.751394  1608326.003398  1882393.383886   324354.492365 -7437482.332262 *************** 18639422.102448 *************** *************** *************** *************** *************** *************** *************** *************** *************** *************** *************** *************** *************** *************** *************** *************** *************** *************** *************** *************** *************** *************** *************** *************** -2799515.069603   412534.322470   651218.197316   692147.460953   905040.199992  1015497.160499   688289.665016  -142954.095963  -834455.430992  -444472.138397   686627.247478   699299.698731  -809661.449503 -1181246.581404   820096.009605  1688080.789163  -639717.206632 -1917480.294186   437119.872906  1785655.291666  -331717.741485 -1386564.789409   309032.031106   890846.527267  -286282.398937  -451971.093045   221808.895684   162930.337455  -132279.542925   -29377.724996    55039.877278    -7927.944360   -14501.263605     6679.407095      889.547031    -2038.648611