<?xml version="1.0"?>
<VTKFile type="StructuredGrid">
<StructuredGrid WholeExtent="     0    99     0    99     0     0">
<Piece Extent="     0    99     0    99     0     0">
<Points>
<DataArray type="Float32" NumberOfComponents="3"/>
      -0.002500       -0.002500        0.000000       -0.002449       -0.002500        0.000000       -0.002399       -0.002500        0.000000       -0.002348       -0.002500        0.000000       -0.002298       -0.002500        0.000000       -0.002247       -0.002500        0.000000       -0.002197       -0.002500        0.000000       -0.002146       -0.002500        0.000000       -0.002096       -0.002500        0.000000       -0.002045       -0.002500        0.000000       -0.001995       -0.002500        0.000000       -0.001944       -0.002500        0.000000       -0.001894       -0.002500        0.000000       -0.001843       -0.002500        0.000000       -0.001793       -0.002500        0.000000       -0.001742       -0.002500        0.000000       -0.001692       -0.002500        0.000000       -0.001641       -0.002500        0.000000       -0.001591       -0.002500        0.000000       -0.001540       -0.002500        0.000000       -0.001490       -0.002500        0.000000       -0.001439       -0.002500        0.000000       -0.001389       -0.002500        0.000000       -0.001338       -0.002500        0.000000       -0.001288       -0.002500        0.000000       -0.001237       -0.002500        0.000000       -0.001187       -0.002500        0.000000       -0.001136       -0.002500        0.000000       -0.001086       -0.002500        0.000000       -0.001035       -0.002500        0.000000       -0.000985       -0.002500        0.000000       -0.000934       -0.002500        0.000000       -0.000884       -0.002500        0.000000       -0.000833       -0.002500        0.000000       -0.000783       -0.002500        0.000000       -0.000732       -0.002500        0.000000       -0.000682       -0.002500        0.000000       -0.000631       -0.002500        0.000000       -0.000581       -0.002500        0.000000       -0.000530       -0.002500        0.000000       -0.000480       -0.002500        0.000000       -0.000429       -0.002500        0.000000       -0.000379       -0.002500        0.000000       -0.000328       -0.002500        0.000000       -0.000278       -0.002500        0.000000       -0.000227       -0.002500        0.000000       -0.000177       -0.002500        0.000000       -0.000126       -0.002500        0.000000       -0.000076       -0.002500        0.000000       -0.000025       -0.002500        0.000000        0.000025       -0.002500        0.000000        0.000076       -0.002500        0.000000        0.000126       -0.002500        0.000000        0.000177       -0.002500        0.000000        0.000227       -0.002500        0.000000        0.000278       -0.002500        0.000000        0.000328       -0.002500        0.000000        0.000379       -0.002500        0.000000        0.000429       -0.002500        0.000000        0.000480       -0.002500        0.000000        0.000530       -0.002500        0.000000        0.000581       -0.002500        0.000000        0.000631       -0.002500        0.000000        0.000682       -0.002500        0.000000        0.000732       -0.002500        0.000000        0.000783       -0.002500        0.000000        0.000833       -0.002500        0.000000        0.000884       -0.002500        0.000000        0.000934       -0.002500        0.000000        0.000985       -0.002500        0.000000        0.001035       -0.002500        0.000000        0.001086       -0.002500        0.000000        0.001136       -0.002500        0.000000        0.001187       -0.002500        0.000000        0.001237       -0.002500        0.000000        0.001288       -0.002500        0.000000        0.001338       -0.002500        0.000000        0.001389       -0.002500        0.000000        0.001439       -0.002500        0.000000        0.001490       -0.002500        0.000000        0.001540       -0.002500        0.000000        0.001591       -0.002500        0.000000        0.001641       -0.002500        0.000000        0.001692       -0.002500        0.000000        0.001742       -0.002500        0.000000        0.001793       -0.002500        0.000000        0.001843       -0.002500        0.000000        0.001894       -0.002500        0.000000        0.001944       -0.002500        0.000000        0.001995       -0.002500        0.000000        0.002045       -0.002500        0.000000        0.002096       -0.002500        0.000000        0.002146       -0.002500        0.000000        0.002197       -0.002500        0.000000        0.002247       -0.002500        0.000000        0.002298       -0.002500        0.000000        0.002348       -0.002500        0.000000        0.002399       -0.002500        0.000000        0.002449       -0.002500        0.000000        0.002500       -0.002500        0.000000
      -0.002500       -0.002449        0.000000       -0.002449       -0.002449        0.000000       -0.002399       -0.002449        0.000000       -0.002348       -0.002449        0.000000       -0.002298       -0.002449        0.000000       -0.002247       -0.002449        0.000000       -0.002197       -0.002449        0.000000       -0.002146       -0.002449        0.000000       -0.002096       -0.002449        0.000000       -0.002045       -0.002449        0.000000       -0.001995       -0.002449        0.000000       -0.001944       -0.002449        0.000000       -0.001894       -0.002449        0.000000       -0.001843       -0.002449        0.000000       -0.001793       -0.002449        0.000000       -0.001742       -0.002449        0.000000       -0.001692       -0.002449        0.000000       -0.001641       -0.002449        0.000000       -0.001591       -0.002449        0.000000       -0.001540       -0.002449        0.000000       -0.001490       -0.002449        0.000000       -0.001439       -0.002449        0.000000       -0.001389       -0.002449        0.000000       -0.001338       -0.002449        0.000000       -0.001288       -0.002449        0.000000       -0.001237       -0.002449        0.000000       -0.001187       -0.002449        0.000000       -0.001136       -0.002449        0.000000       -0.001086       -0.002449        0.000000       -0.001035       -0.002449        0.000000       -0.000985       -0.002449        0.000000       -0.000934       -0.002449        0.000000       -0.000884       -0.002449        0.000000       -0.000833       -0.002449        0.000000       -0.000783       -0.002449        0.000000       -0.000732       -0.002449        0.000000       -0.000682       -0.002449        0.000000       -0.000631       -0.002449        0.000000       -0.000581       -0.002449        0.000000       -0.000530       -0.002449        0.000000       -0.000480       -0.002449        0.000000       -0.000429       -0.002449        0.000000       -0.000379       -0.002449        0.000000       -0.000328       -0.002449        0.000000       -0.000278       -0.002449        0.000000       -0.000227       -0.002449        0.000000       -0.000177       -0.002449        0.000000       -0.000126       -0.002449        0.000000       -0.000076       -0.002449        0.000000       -0.000025       -0.002449        0.000000        0.000025       -0.002449        0.000000        0.000076       -0.002449        0.000000        0.000126       -0.002449        0.000000        0.000177       -0.002449        0.000000        0.000227       -0.002449        0.000000        0.000278       -0.002449        0.000000        0.000328       -0.002449        0.000000        0.000379       -0.002449        0.000000        0.000429       -0.002449        0.000000        0.000480       -0.002449        0.000000        0.000530       -0.002449        0.000000        0.000581       -0.002449        0.000000        0.000631       -0.002449        0.000000        0.000682       -0.002449        0.000000        0.000732       -0.002449        0.000000        0.000783       -0.002449        0.000000        0.000833       -0.002449        0.000000        0.000884       -0.002449        0.000000        0.000934       -0.002449        0.000000        0.000985       -0.002449        0.000000        0.001035       -0.002449        0.000000        0.001086       -0.002449        0.000000        0.001136       -0.002449        0.000000        0.001187       -0.002449        0.000000        0.001237       -0.002449        0.000000        0.001288       -0.002449        0.000000        0.001338       -0.002449        0.000000        0.001389       -0.002449        0.000000        0.001439       -0.002449        0.000000        0.001490       -0.002449        0.000000        0.001540       -0.002449        0.000000        0.001591       -0.002449        0.000000        0.001641       -0.002449        0.000000        0.001692       -0.002449        0.000000        0.001742       -0.002449        0.000000        0.001793       -0.002449        0.000000        0.001843       -0.002449        0.000000        0.001894       -0.002449        0.000000        0.001944       -0.002449        0.000000        0.001995       -0.002449        0.000000        0.002045       -0.002449        0.000000        0.002096       -0.002449        0.000000        0.002146       -0.002449        0.000000        0.002197       -0.002449        0.000000        0.002247       -0.002449        0.000000        0.002298       -0.002449        0.000000        0.002348       -0.002449        0.000000        0.002399       -0.002449        0.000000        0.002449       -0.002449        0.000000        0.002500       -0.002449        0.000000
[...]
<CellData Scalars="Temprature, U, V">
<DataArray type="Float32" Name="Temp, K"/>
     292.930503      293.822041      293.608260      291.363252      287.587832      283.024672      277.382974      270.482555      263.089709      255.792842      248.477562      241.188344      234.357934      228.189110      222.544796      217.327440      212.577734      208.337062      204.592093      201.251812      198.159431      195.201282      192.453622      190.059385      188.076411      186.419194      184.919838      183.487720      182.113219      179.642302      171.193919      133.414738      -10.269692     -504.940233    -1997.164043    -6041.408864   -15987.611804   -38267.759528   -83991.258033  -170300.378720  -320275.734539  -560549.573593  -915192.111514 -1396592.850632 -1994902.800729 -2670540.750078 -3353542.796318 -3953019.176152 -4375994.094004 -4550785.912089 -4446205.124011 -4080861.708937 -3517803.085398 -2846656.636504 -2161017.766737 -1537603.800689 -1024279.133541  -637932.698871  -370708.429728  -200552.452588  -100718.987469   -46752.357059   -19939.688101    -7722.183996    -2645.132467     -730.320869      -80.502758      114.792700      166.519309      178.861468      181.794488      183.423721      184.821138      186.356122      188.214700      190.718053      193.444114      194.558486      194.026977      198.292753      212.146818      219.612192      200.238309      186.237949      234.281287      287.250983      224.396847      143.092730      254.045810      391.525433      249.204420      100.201509      310.629777      466.294296      217.203926      114.214933      408.903191      440.540104     -116.787236
     292.251062      294.086345      295.659746      294.040145      288.454046      280.577648      270.980905      258.832260      244.662946      230.074977      215.569963      200.954187      186.715808      173.570856      161.607399      150.580028      140.408122      131.143363      122.846540      115.523763      108.995405      102.896735       97.020370       91.510204       86.630955       82.549983       79.041361       75.929166       73.131726       68.840650       57.212339        1.709703     -214.831584     -988.097065    -3369.709400    -9953.817241   -26372.105269   -63577.366339  -140645.506107  -287218.145668  -543543.141457  -956324.069993 -1568294.360164 -2402027.532260 -3441447.786570 -4618196.979133 -5810365.421535 -6858782.309428 -7600179.290684 -7908011.928289 -7727272.684891 -7090204.671329 -6107383.734066 -4936216.135833 -3740880.110335 -2655738.467071 -1764020.688441 -1094671.350662  -633331.396145  -340834.500682  -170101.148219   -78408.249208   -33213.335589   -12829.323514    -4465.417932    -1359.484357     -328.804741      -27.261983       49.910500       68.010859       72.544551       75.889942       79.013457       82.640854       87.110174       92.310550       96.484883       98.200967      102.892047      120.192546      139.968310      128.524283       97.107349      133.493420      237.439636      222.170276       62.841041      102.873297      389.452529      365.260706        5.308176      105.041192      568.248023      403.202095      -61.090545      242.259028      686.275865      199.552684     -488.394149
     291.560052      292.895351      295.798317      298.230003      296.702488      290.972069      283.327482      273.972528      261.679826      247.277112      232.626839      218.083124      203.350678      189.002699      175.806979      163.846412      152.861059      142.688587      133.288495      124.809280      117.504816      111.319061      105.693697      100.103722       94.501423       89.316675       84.813605       81.108708       77.845432       74.847149       73.694484       79.103884      117.448911      268.271378      783.943873     2273.469883     6151.297686    15234.046056    34565.872265    72184.972764   139246.039944   249052.620696   414093.406408   641600.609221   928023.756311  1254966.664564  1588389.611661  1883198.086307  2092599.139307  2180317.160663  2130146.404110  1951363.704515  1675597.707962  1347927.608994  1015042.501746   714714.041139   469979.664538   288104.377078   164258.277860    86861.987440    42476.451852    19129.099696     7902.928683     2986.056317     1040.420352      353.921494      139.971509       84.534781       74.205621       75.065571       77.671672       81.035871       84.732755       89.104469       94.016976       98.165048      100.864025      106.804047      123.107857      139.909272      128.401227      100.480317      138.009818      242.462662      228.838057       56.529599       83.458760      408.440332      418.876028      -20.910115       21.271498      621.937427      524.921009     -139.769848      102.857917      801.133671      413.658863     -461.541207     -567.151173
     291.161282      291.942024      294.065703      298.267493      301.547952      299.908258      294.015825      286.716140      277.583683      265.055691      250.395115      235.675596      221.057153      206.181405      191.703129      178.410957      166.427914      155.547631      145.461129      135.861815      126.898608      119.243785      113.240103      108.302713      103.479589       98.298791       93.028271       88.219577       83.690358       80.370629       80.700295      111.030678      270.182459      915.858040     3082.177168     9421.963283    25938.652201    64687.672898   147223.371585   307796.453998   593987.527364  1062199.663953  1765589.310093  2734529.679020  3953770.269894  5344791.763117  6763113.329755  8017350.138141  8909278.670351  9284056.394301  9073490.316689  8315911.384986  7145144.716909  5752184.024541  4335346.626128  3055687.976106  2011274.736526  1234037.537784   704140.182586   372590.862400   182158.347098    81896.326968    33662.543156    12558.619018     4223.754628     1281.829730      372.619649      133.825861       84.812173       80.093470       83.317855       87.159529       91.675526       96.453470      100.729481      104.332936      111.072652      125.852890      139.606997      128.880240      105.755892      143.625657      245.074468      233.889762       55.151576       65.641299      419.302894      478.017481      -30.485894      -82.026318      651.079073      691.862132     -187.592973     -107.958207      883.796055      691.764558     -442.338910     -709.077743     -367.809077
     290.815595      291.677217      292.783453      295.849155      301.587644      305.604820      303.627092      297.624835      290.792992      281.827598      268.977231      254.050524      239.243986      224.508639      209.482686      194.859754      181.378147      169.289921      158.621694      148.905769      139.258535      129.514931      120.769544      114.138297      109.443636      105.432148      101.136487       96.366230       91.662432       87.650582       83.600617       76.514948       45.527597      -79.763255     -535.868587    -1938.152761    -5757.573230   -15037.734133   -35378.905689   -75910.911229  -149602.762456  -272227.974240  -459064.367127  -719525.944040 -1050547.131904 -1431336.246627 -1822204.863420 -2169735.133373 -2418022.176847 -2523193.941821 -2465623.039002 -2256085.664579 -1932335.181549 -1548232.669358 -1159357.078992  -810363.370748  -527890.971691  -319803.893851  -179679.205469   -93297.489309   -44569.140813   -19458.221650    -7685.704294    -2693.140507     -796.688985     -160.444411       25.927849       71.967961       82.737653       86.682087       90.520158       94.776958       99.525056      103.981728      108.248937      115.281006      128.216353      139.191368      130.077759      112.683591      150.207092      245.413355      236.716123       58.745855       52.160101      421.416417      536.640654      -19.425367     -195.131307      642.792436      893.247850     -176.563970     -384.069285      892.104289     1048.221024     -362.928703     -925.537464     -390.457483     -236.755526
     290.300307      291.454076      292.721757      294.047687      298.337446      305.840929      310.366404      307.841796      301.862008      295.605247      286.714354      273.473679      258.286500      243.350115      228.447582      213.310624      198.567228      184.726538      172.273623      161.849742      153.042231      144.063741      133.804791      123.408700      114.980034      109.310522      105.487890      101.959554       98.545298       95.120163       91.943233       73.843421      -32.807052     -522.141990    -2324.212364    -7951.139682   -23333.237848   -60791.704953  -142972.566419  -306698.652871  -604270.062964 -1099035.824061 -1852369.514438 -2901784.749060 -4234662.216530 -5767155.969110 -7339823.468662 -8738279.275712 -9738330.130258 *************** -9935017.727322 -9095310.138028 -7795343.493642 -6250944.063386 -4685377.498922 -3278550.286607 -2138135.772367 -1296800.506837  -729438.149984  -379181.783316  -181306.501369   -79239.024722   -31371.530321   -11093.416774    -3411.256374     -847.857151     -114.654063       58.269145       89.666493       94.851876       98.215772      102.543566      106.939989      111.616941      118.629551      129.833003      138.770391      132.147999      121.014245      157.567300      243.851467      237.106311       66.885787       45.324816      415.579121      588.237987       12.897313     -304.744738      589.414340     1108.223847      -82.786756     -700.553777      781.463263     1466.163305     -161.063156    -1209.698996     -508.605331      -77.752107     -331.095937
     289.736869      290.782005      292.805947      294.219202      295.720702      301.662714      311.086764      315.775086      312.562124      306.810627      301.191361      292.253009      278.591903      263.161145      248.000960      232.852592      217.731699      203.029302      188.618875      175.184820      164.597637      157.188928      150.295232      141.100691      129.878986      119.380518      111.692182      106.792074      103.286199       99.701470       95.857736       92.962300      105.253495      189.120727      548.428004     1755.966979     5234.932540    14044.386979    33975.786083    74694.478697   150245.184377   278059.924850   475499.681279   753881.721827  1111029.329193  1525079.652903  1952849.049552  2335305.534537  2610088.961448  2727804.413113  2666170.159395  2436896.539613  2082033.838923  1661630.110439  1237440.570390   858701.233686   554225.404610   331893.719830   183831.941124    93805.141656    43875.474194    18689.217585     7196.425631     2492.203827      789.187748      256.599552      119.222616       95.083190       95.790971      100.397660      104.977788      109.460958      114.247415      121.136531      131.083139      139.000949      135.593697      130.679717      165.533843      240.902350      235.251598       78.797642       46.580378      403.804204      627.143091       63.307787     -396.573916      491.539143     1308.915319      105.487410    -1013.935129      517.692801     1895.962220      222.015578    -1521.233556     -778.921515      110.402082     -236.950436     -448.879810
     289.341844      290.014479      292.018387      294.874054      296.057305      297.842331      305.991871      317.342340      321.762042      317.836641      312.567578      307.575658      298.451314      284.403656      268.766360      253.192965      237.616978      222.749294      208.592030      193.605422      178.180850      166.012517      159.481856      155.873119      150.257683      140.812464      129.659651      120.010678      112.712616      106.885581      100.009330       97.371716      145.785332      464.257197     1819.406904     6415.610427    19697.193525    53385.352633   129648.242488   285389.060438   574167.935749  1062248.308010  1815514.801096  2876645.807647  4236974.413734  5813105.956758  7440925.822894  8896394.652535  9942976.092703 10393037.450020 10161818.252416  9292992.079365  7945493.504058  6346827.508341  4731557.778954  3287259.395933  2124291.426639  1273682.693397   706265.719972   360670.125035   168680.921552    71711.827436    27432.814792     9314.895400     2765.489782      723.974106      201.343495      104.492200       99.925232      106.817998      112.581081      117.922373      124.875158      134.045778      141.644375      141.447341      141.751945      173.822801      236.993106      231.608710       93.533578       56.310042      388.823053      649.630023      125.468439     -458.404970      358.908601     1466.363034      381.815062    -1269.364578       91.835422     2258.846814      822.277795    -1777.159529    -1256.867929      280.605234       -9.981033     -574.630061     -371.220005
     289.058277      289.683567      290.858795      294.115937      297.601672      298.110274      300.534222      311.501277      324.569056      328.267292      323.758970      319.237440      314.764408      305.304902      291.009941      275.274769      258.951736      242.478553      228.096422      215.580127      200.841220      182.590551      166.242114      157.705552      156.038142      154.906734      149.592330      140.318208      130.077301      121.534875      115.469445      111.650289      101.802976       45.315329     -219.788388    -1186.824342    -4139.290977   -11944.799569   -30195.264821   -68448.221027  -140900.131564  -265532.085449  -460711.872650  -739026.771554 -1099428.967739 -1520474.157879 -1958251.999515 -2351802.401076 -2636116.774077 -2759280.962715 -2697625.223575 -2463049.401740 -2099312.904449 -1668973.362330 -1236166.683621  -851637.814423  -544558.241753  -322255.350432  -175824.456024   -87999.267615   -40116.648634   -16480.790540    -5990.767368    -1850.827366     -423.696571       -6.171638       92.615426      110.308262      114.431048      118.365378      123.913790      131.288584      140.272530      147.804663      149.984617      153.623234      181.590764      232.182184      226.752865      110.215380       73.939722      373.485187      654.495860      191.346235     -482.681310      208.716520     1557.483703      720.228974    -1413.435137     -469.371727     2462.148163     1629.658444    -1858.034437    -1963.165173      329.799844      402.636049     -672.677732     -518.286482     -206.104237
     288.640660      289.619978      290.447649      292.348020      297.196737      300.845160      300.284112      304.011875      318.339060      332.673360      335.260048      330.467024      326.936469      322.744818      312.762130      298.523147      283.019685      265.477563      247.029135      232.902368      223.677192      211.699718      191.517283      168.586924      153.046921      148.164362      148.631855      147.494168      142.429568      135.385020      130.782075      130.343710      110.332009      -75.844449    -1008.787540    -4484.580651   -15162.277108   -43449.420067  -109611.708956  -248193.963066  -510400.434244  -960885.595804 -1665511.882313 -2669138.512665 -3967530.287671 -5483274.909987 -7058554.501542 -8474642.990596 -9498437.389144 -9943639.924531 -9725058.559111 -8884679.285318 -7578787.568310 -6031403.067873 -4472804.987161 -3085811.246210 -1976204.238681 -1171410.545824  -640237.203265  -321003.925569  -146610.180961   -60381.857201   -22072.959609    -6958.658910    -1764.243726     -262.128047       78.067514      127.775458      129.305123      131.536052      138.197654      146.847598      154.305878      158.024961      163.471877      186.931053      226.203643      221.537278      128.421640       98.297417      360.206252      642.983149      253.005745     -467.803797       61.832151     1570.721717     1079.695024    -1408.699214    -1102.844244     2424.314474     2573.108448    -1634.670587    -2849.028097      112.574601     1005.419790     -632.314348     -826.128498     -116.198616     -220.471087
     288.051954      289.205023      290.751463      291.550238      294.670058      301.335125      304.372334      302.576011      308.568665      326.589092      341.524809      342.746879      338.135998      335.820254      331.497578      320.651230      306.976178      292.563606      273.462751      251.054661      235.513107      230.788609      225.898596      208.478222      180.603089      155.369768      141.984610      139.002086      139.569127      138.437661      134.162434      126.829219      120.413185      140.753687      306.260185     1011.438206     3338.036934     9800.758394    25453.554302    59143.768685   124294.065730   238243.208991   419119.321591   679902.111217  1020680.035180  1421784.921207  1841421.765332  2220675.880573  2496133.841079  2616769.489894  2559051.660990  2334292.975258  1985095.950667  1572445.293533  1158688.427542   792802.520935   502472.898114   294042.164029   158201.908684    77817.659179    34734.353564    13931.272844     4963.896450     1565.257504      463.038928      174.157942      123.447775      125.561897      134.079270      142.295938      150.046130      156.560500      160.958715      167.741350      188.081857      219.434619      217.688944      148.607207      128.002091      350.500093      618.098937      304.176328     -417.842802      -61.813047     1508.522922     1413.196095    -1244.770120    -1720.368960     2101.933294     3524.163254    -1010.759856    -3777.246413     -516.259685     1710.342993     -297.365193    -1289.324288     -158.625611        5.163182     -412.569127
     287.550685      288.350877      290.597152      292.286138      292.988826      298.108871      306.481730      307.905314      305.125105      314.529133      336.256333      350.987248      350.751806      346.962793      346.151052      341.055433      328.581801      316.080990      304.602762      284.511167      255.457927      234.171956      232.308226      238.620798      232.696393      208.836276      178.804394      156.422906      145.681011      141.976340      137.792111      126.597813      115.436796      191.114476      758.442841     3180.466063    11186.249925    33428.348599    87254.460306   202936.068909   426262.752512   816180.124537  1434093.476649  2323676.830600  3484700.754142  4849952.213782  6277408.315837  7567297.973283  8504776.014881  8916885.702991  8723591.817406  7962603.753125  6777639.482482  5375021.972845  3966285.255829  2718243.805034  1725904.997377  1011903.922591   545447.094167   268715.662899   120011.833559    48031.895675    16939.259689     5138.822800     1310.698823      307.895438      127.979711      125.706739      141.417626      151.422133      157.351262      161.929734      169.790195      188.629018      215.580477      218.527749      171.903510      161.329611      344.503799      583.607419      341.256239     -340.877153     -147.224789     1385.961060     1678.491273     -941.919649    -2228.915661     1508.440394     4322.403900       33.321759    -4535.355059    -1636.689927     2316.408298      475.195401    -1792.705255     -486.881662      357.305043     -400.771618     -482.485942